TITLE = Boundary data
VARIABLES =  "x0" "x1" "p" "u" "v" "T" "rho" "H" "M" "xc0" "xc1" "xc2" "xc3" "xc4"
ZONE   T= "ZONE0 Wall", N=139, E=138, ZONETYPE=FELINESEG, DATAPACKING=BLOCK, STRANDID=1, SOLUTIONTIME=5.78800000000000e+03, VARLOCATION=( [1-2]=NODAL,[3-6]=NODAL,[7-14]=NODAL)
+1.10000000000000e+00
+1.80137700000000e-02
+1.07163162050000e+00
+1.04521824960000e+00
+1.02062515790000e+00
+9.97726900530000e-01
+9.76406678040000e-01
+9.56555740000000e-01
+9.36704819320000e-01
+9.16323082120000e-01
+8.95396334290000e-01
+8.73910002150000e-01
+8.51849122350000e-01
+8.31320160150000e-01
+8.12216738500000e-01
+7.94439867200000e-01
+7.77897430000000e-01
+7.61354995270000e-01
+7.45234795260000e-01
+7.29526052700000e-01
+7.14218265420000e-01
+6.99301199290000e-01
+6.84823989550000e-01
+6.70773666230000e-01
+6.57137641830000e-01
+6.43903700000000e-01
+6.30669783380000e-01
+6.17647687050000e-01
+6.04834020630000e-01
+5.92225448030000e-01
+5.79818686550000e-01
+5.67610506010000e-01
+5.55597727970000e-01
+5.43777224830000e-01
+5.32145919060000e-01
+5.20700782410000e-01
+5.09438835080000e-01
+4.98357144950000e-01
+4.87452826860000e-01
+4.76723041810000e-01
+4.66164996260000e-01
+4.55775941360000e-01
+4.45553172270000e-01
+4.35494027450000e-01
+4.25595887940000e-01
+4.15856176710000e-01
+4.06272357990000e-01
+3.96841936580000e-01
+3.87562457220000e-01
+3.78431503960000e-01
+3.69446699500000e-01
+3.60605704610000e-01
+3.51906217500000e-01
+3.43345973200000e-01
+3.34922743020000e-01
+3.26634333920000e-01
+3.18478587980000e-01
+3.10453381810000e-01
+3.02556626000000e-01
+2.94786264610000e-01
+2.87140274570000e-01
+2.79616665220000e-01
+2.72213477740000e-01
+2.64928784690000e-01
+2.57797843450000e-01
+2.50817408920000e-01
+2.43984304490000e-01
+2.37295420580000e-01
+2.30747713260000e-01
+2.24338202820000e-01
+2.18063972470000e-01
+2.11922166960000e-01
+2.05909991320000e-01
+2.00024709550000e-01
+1.94263643420000e-01
+1.88624171220000e-01
+1.83103726550000e-01
+1.77699797220000e-01
+1.72409924020000e-01
+1.67231699680000e-01
+1.62162767720000e-01
+1.57200821390000e-01
+1.52343602640000e-01
+1.47588901070000e-01
+1.42934552950000e-01
+1.38378440200000e-01
+1.33918489440000e-01
+1.29552671070000e-01
+1.25278998310000e-01
+1.21095526330000e-01
+1.17000351330000e-01
+1.12991609710000e-01
+1.09067477190000e-01
+1.05226167990000e-01
+1.01465934040000e-01
+9.77850641540000e-02
+9.41818832550000e-02
+9.06547516300000e-02
+8.72020641710000e-02
+8.38222496510000e-02
+8.05137700000000e-02
+7.72052851670000e-02
+7.39068100290000e-02
+7.06183143040000e-02
+6.73397677990000e-02
+6.40711404120000e-02
+6.08124021340000e-02
+5.75635230450000e-02
+5.43244733180000e-02
+5.10952232130000e-02
+4.78757430830000e-02
+4.46660033680000e-02
+4.14659746000000e-02
+3.82756273980000e-02
+3.50949324710000e-02
+3.24262341680000e-02
+3.01871163650000e-02
+2.83084294680000e-02
+2.67321548970000e-02
+2.54096133230000e-02
+2.42999613330000e-02
+2.33689300800000e-02
+2.25877669750000e-02
+2.19323477340000e-02
+2.13824313620000e-02
+2.09210350560000e-02
+2.05339097370000e-02
+2.02091000000000e-02
+1.98878224150000e-02
+1.95871238660000e-02
+1.93102464880000e-02
+1.90595167480000e-02
+1.88363491970000e-02
+1.86413709150000e-02
+1.84694302330000e-02
+1.83181816420000e-02
+1.81921852220000e-02
+1.80962223910000e-02
+1.80351572710000e-02
+1.35063020000000e-01
+0.00000000000000e+00
+1.31579821070000e-01
+1.28336667020000e-01
+1.25317015130000e-01
+1.22505462730000e-01
+1.19887668640000e-01
+1.17450280000000e-01
+1.15012892550000e-01
+1.12510329000000e-01
+1.09940846540000e-01
+1.07302655730000e-01
+1.04593919320000e-01
+1.02073278810000e-01
+9.97276727340000e-02
+9.75449466160000e-02
+9.55137900000000e-02
+9.34826345760000e-02
+9.15033230530000e-02
+8.95745321480000e-02
+8.76949723570000e-02
+8.58633870880000e-02
+8.40858093860000e-02
+8.23606467440000e-02
+8.06863536080000e-02
+7.90614300000000e-02
+7.74365094810000e-02
+7.58375972200000e-02
+7.42642769330000e-02
+7.27161389990000e-02
+7.11927803510000e-02
+6.96938043770000e-02
+6.82188208090000e-02
+6.67674456300000e-02
+6.53393009660000e-02
+6.39340149930000e-02
+6.25512218380000e-02
+6.11905614830000e-02
+5.98516796750000e-02
+5.85342278280000e-02
+5.72378629380000e-02
+5.59622474890000e-02
+5.47070493690000e-02
+5.34719417810000e-02
+5.22566031580000e-02
+5.10607170820000e-02
+4.98839721960000e-02
+4.87260621310000e-02
+4.75866854180000e-02
+4.64655454140000e-02
+4.53623502270000e-02
+4.42768126330000e-02
+4.32086500070000e-02
+4.21575842480000e-02
+4.11233417060000e-02
+4.01056531100000e-02
+3.91042535010000e-02
+3.81188821590000e-02
+3.71492825380000e-02
+3.61952021970000e-02
+3.52563927380000e-02
+3.43326097360000e-02
+3.34236126800000e-02
+3.25291649090000e-02
+3.16535954860000e-02
+3.07965059620000e-02
+2.99575062980000e-02
+2.91362146850000e-02
+2.83322573770000e-02
+2.75452685110000e-02
+2.67748899500000e-02
+2.60207711140000e-02
+2.52825688220000e-02
+2.45599471390000e-02
+2.38525772170000e-02
+2.31601371500000e-02
+2.24823118260000e-02
+2.18187927850000e-02
+2.11692780770000e-02
+2.05334721220000e-02
+1.99110855830000e-02
+1.93018352270000e-02
+1.87054438010000e-02
+1.81216399010000e-02
+1.75501578530000e-02
+1.69907375910000e-02
+1.64431245360000e-02
+1.59070694840000e-02
+1.53823284910000e-02
+1.48686627590000e-02
+1.43658385330000e-02
+1.38736269900000e-02
+1.33918041370000e-02
+1.29201507100000e-02
+1.24584520700000e-02
+1.20064981100000e-02
+1.15640831590000e-02
+1.11310058830000e-02
+1.07070692020000e-02
+1.02920801910000e-02
+9.88585000000000e-03
+9.47961927560000e-03
+9.07461758690000e-03
+8.67084121560000e-03
+8.26828645440000e-03
+7.86694960750000e-03
+7.46682699000000e-03
+7.06791492850000e-03
+6.67020976030000e-03
+6.27370783410000e-03
+5.87840550950000e-03
+5.48429915710000e-03
+5.09138515870000e-03
+4.69965990670000e-03
+4.30911980470000e-03
+3.98144496270000e-03
+3.70651595660000e-03
+3.47584228650000e-03
+3.28230016880000e-03
+3.11991253550000e-03
+2.98366444790000e-03
+2.86934822170000e-03
+2.77343348430000e-03
+2.69295814700000e-03
+2.62543692890000e-03
+2.56878460460000e-03
+2.52125160790000e-03
+2.48137000000000e-03
+2.42037365300000e-03
+2.32192681100000e-03
+2.19124315440000e-03
+2.03350957080000e-03
+1.85371828800000e-03
+1.65654221500000e-03
+1.43898706010000e-03
+1.19557473600000e-03
+9.27496414520000e-04
+6.36763119340000e-04
+3.26314002040000e-04
+1.37427440956014e+04
+3.47422757004643e+05
+1.37386077106191e+04
+1.37354581070400e+04
+1.37368325797283e+04
+1.37381574495815e+04
+1.37393045301386e+04
+1.37401646417705e+04
+1.37408240815051e+04
+1.37413405467724e+04
+1.37417031470202e+04
+1.37418466381849e+04
+1.37417389302357e+04
+1.37415101967193e+04
+1.37413316124317e+04
+1.37414516580735e+04
+1.37419012608502e+04
+1.37425102651845e+04
+1.37432943171011e+04
+1.37441475806290e+04
+1.37449236950790e+04
+1.37456605543370e+04
+1.37461151619048e+04
+1.37463223344248e+04
+1.37476828638966e+04
+1.37489275603552e+04
+1.37490273512532e+04
+1.37490321422367e+04
+1.37489790779778e+04
+1.37491724551721e+04
+1.37494624646177e+04
+1.37497858594391e+04
+1.37502605570397e+04
+1.37508211528390e+04
+1.37512896144741e+04
+1.37515611359863e+04
+1.37516273084516e+04
+1.37515906224866e+04
+1.37514143364201e+04
+1.37509722175815e+04
+1.37504104061175e+04
+1.37500059127561e+04
+1.37498865220541e+04
+1.37497706063905e+04
+1.37495925838225e+04
+1.37493267038792e+04
+1.37490495234882e+04
+1.37485684508402e+04
+1.37478225124890e+04
+1.37468731424931e+04
+1.37455758483210e+04
+1.37441930320476e+04
+1.37428314099432e+04
+1.37413621816424e+04
+1.37397340597374e+04
+1.37380455063828e+04
+1.37361493584359e+04
+1.37338526196280e+04
+1.37312395656709e+04
+1.37284516010139e+04
+1.37252621211363e+04
+1.37214370761189e+04
+1.37169781175880e+04
+1.37122488550214e+04
+1.37072569640485e+04
+1.37017133519182e+04
+1.36957479155495e+04
+1.36894350488819e+04
+1.36827332331979e+04
+1.36752899450988e+04
+1.36670343919638e+04
+1.36579384096817e+04
+1.36479224085698e+04
+1.36370524226170e+04
+1.36254291914037e+04
+1.36127173734057e+04
+1.35986353127226e+04
+1.35835783445207e+04
+1.35670148569998e+04
+1.35488219706759e+04
+1.35289764201171e+04
+1.35069743354841e+04
+1.34827931523029e+04
+1.34562483041003e+04
+1.34275496949333e+04
+1.33969765541087e+04
+1.33642980428877e+04
+1.33295468772943e+04
+1.32931964921426e+04
+1.32554284604381e+04
+1.32163633415842e+04
+1.31753215861838e+04
+1.31317475711823e+04
+1.30852205937855e+04
+1.30347271690918e+04
+1.29797946836547e+04
+1.29201072928583e+04
+1.28562825042550e+04
+1.27898310208576e+04
+1.27215926875375e+04
+1.26508238335761e+04
+1.25758217423040e+04
+1.24988346382191e+04
+1.24223432823773e+04
+1.23480540427550e+04
+1.22782255512730e+04
+1.22163796057186e+04
+1.21668743374942e+04
+1.21351486321702e+04
+1.21289939051182e+04
+1.21588226902997e+04
+1.22384334507365e+04
+1.23868396678671e+04
+1.26317606129285e+04
+1.30376420838400e+04
+1.35815562214544e+04
+1.42565482687492e+04
+1.50508186391844e+04
+1.59494597271950e+04
+1.69353692821174e+04
+1.79894552395197e+04
+1.91004628666643e+04
+2.02903408794919e+04
+2.20852085032154e+04
+2.39078305820328e+04
+2.54516157267771e+04
+2.73420456354557e+04
+3.21036664367834e+04
+4.43806245352600e+04
+6.37136798281376e+04
+8.82458426707636e+04
+1.18041269565728e+05
+1.50035513810414e+05
+1.84047096432099e+05
+2.26045910400670e+05
+2.66884193287928e+05
+3.02208153327701e+05
+3.34477727728099e+05
+3.47899330854938e+05
+0.00000000000000e+00
+0.00000000000000e+00
+0.00000000000000e+00
+0.00000000000000e+00
+0.00000000000000e+00
+0.00000000000000e+00
+0.00000000000000e+00
+0.00000000000000e+00
+0.00000000000000e+00
+0.00000000000000e+00
+0.00000000000000e+00
+0.00000000000000e+00
+0.00000000000000e+00
+0.00000000000000e+00
+0.00000000000000e+00
+0.00000000000000e+00
+0.00000000000000e+00
+0.00000000000000e+00
+0.00000000000000e+00
+0.00000000000000e+00
+0.00000000000000e+00
+0.00000000000000e+00
+0.00000000000000e+00
+0.00000000000000e+00
+0.00000000000000e+00
+0.00000000000000e+00
+0.00000000000000e+00
+0.00000000000000e+00
+0.00000000000000e+00
+0.00000000000000e+00
+0.00000000000000e+00
+0.00000000000000e+00
+0.00000000000000e+00
+0.00000000000000e+00
+0.00000000000000e+00
+0.00000000000000e+00
+0.00000000000000e+00
+0.00000000000000e+00
+0.00000000000000e+00
+0.00000000000000e+00
+0.00000000000000e+00
+0.00000000000000e+00
+0.00000000000000e+00
+0.00000000000000e+00
+0.00000000000000e+00
+0.00000000000000e+00
+0.00000000000000e+00
+0.00000000000000e+00
+0.00000000000000e+00
+0.00000000000000e+00
+0.00000000000000e+00
+0.00000000000000e+00
+0.00000000000000e+00
+0.00000000000000e+00
+0.00000000000000e+00
+0.00000000000000e+00
+0.00000000000000e+00
+0.00000000000000e+00
+0.00000000000000e+00
+0.00000000000000e+00
+0.00000000000000e+00
+0.00000000000000e+00
+0.00000000000000e+00
+0.00000000000000e+00
+0.00000000000000e+00
+0.00000000000000e+00
+0.00000000000000e+00
+0.00000000000000e+00
+0.00000000000000e+00
+0.00000000000000e+00
+0.00000000000000e+00
+0.00000000000000e+00
+0.00000000000000e+00
+0.00000000000000e+00
+0.00000000000000e+00
+0.00000000000000e+00
+0.00000000000000e+00
+0.00000000000000e+00
+0.00000000000000e+00
+0.00000000000000e+00
+0.00000000000000e+00
+0.00000000000000e+00
+0.00000000000000e+00
+0.00000000000000e+00
+0.00000000000000e+00
+0.00000000000000e+00
+0.00000000000000e+00
+0.00000000000000e+00
+0.00000000000000e+00
+0.00000000000000e+00
+0.00000000000000e+00
+0.00000000000000e+00
+0.00000000000000e+00
+0.00000000000000e+00
+0.00000000000000e+00
+0.00000000000000e+00
+0.00000000000000e+00
+0.00000000000000e+00
+0.00000000000000e+00
+0.00000000000000e+00
+0.00000000000000e+00
+0.00000000000000e+00
+0.00000000000000e+00
+0.00000000000000e+00
+0.00000000000000e+00
+0.00000000000000e+00
+0.00000000000000e+00
+0.00000000000000e+00
+0.00000000000000e+00
+0.00000000000000e+00
+0.00000000000000e+00
+0.00000000000000e+00
+0.00000000000000e+00
+0.00000000000000e+00
+0.00000000000000e+00
+0.00000000000000e+00
+0.00000000000000e+00
+0.00000000000000e+00
+0.00000000000000e+00
+0.00000000000000e+00
+0.00000000000000e+00
+0.00000000000000e+00
+0.00000000000000e+00
+0.00000000000000e+00
+0.00000000000000e+00
+0.00000000000000e+00
+0.00000000000000e+00
+0.00000000000000e+00
+0.00000000000000e+00
+0.00000000000000e+00
+0.00000000000000e+00
+0.00000000000000e+00
+0.00000000000000e+00
+0.00000000000000e+00
+0.00000000000000e+00
+0.00000000000000e+00
+0.00000000000000e+00
+0.00000000000000e+00
+0.00000000000000e+00
+0.00000000000000e+00
+0.00000000000000e+00
+0.00000000000000e+00
+0.00000000000000e+00
+0.00000000000000e+00
+0.00000000000000e+00
+0.00000000000000e+00
+0.00000000000000e+00
+0.00000000000000e+00
+0.00000000000000e+00
+0.00000000000000e+00
+0.00000000000000e+00
+0.00000000000000e+00
+0.00000000000000e+00
+0.00000000000000e+00
+0.00000000000000e+00
+0.00000000000000e+00
+0.00000000000000e+00
+0.00000000000000e+00
+0.00000000000000e+00
+0.00000000000000e+00
+0.00000000000000e+00
+0.00000000000000e+00
+0.00000000000000e+00
+0.00000000000000e+00
+0.00000000000000e+00
+0.00000000000000e+00
+0.00000000000000e+00
+0.00000000000000e+00
+0.00000000000000e+00
+0.00000000000000e+00
+0.00000000000000e+00
+0.00000000000000e+00
+0.00000000000000e+00
+0.00000000000000e+00
+0.00000000000000e+00
+0.00000000000000e+00
+0.00000000000000e+00
+0.00000000000000e+00
+0.00000000000000e+00
+0.00000000000000e+00
+0.00000000000000e+00
+0.00000000000000e+00
+0.00000000000000e+00
+0.00000000000000e+00
+0.00000000000000e+00
+0.00000000000000e+00
+0.00000000000000e+00
+0.00000000000000e+00
+0.00000000000000e+00
+0.00000000000000e+00
+0.00000000000000e+00
+0.00000000000000e+00
+0.00000000000000e+00
+0.00000000000000e+00
+0.00000000000000e+00
+0.00000000000000e+00
+0.00000000000000e+00
+0.00000000000000e+00
+0.00000000000000e+00
+0.00000000000000e+00
+0.00000000000000e+00
+0.00000000000000e+00
+0.00000000000000e+00
+0.00000000000000e+00
+0.00000000000000e+00
+0.00000000000000e+00
+0.00000000000000e+00
+0.00000000000000e+00
+0.00000000000000e+00
+0.00000000000000e+00
+0.00000000000000e+00
+0.00000000000000e+00
+0.00000000000000e+00
+0.00000000000000e+00
+0.00000000000000e+00
+0.00000000000000e+00
+0.00000000000000e+00
+0.00000000000000e+00
+0.00000000000000e+00
+0.00000000000000e+00
+0.00000000000000e+00
+0.00000000000000e+00
+0.00000000000000e+00
+0.00000000000000e+00
+0.00000000000000e+00
+0.00000000000000e+00
+0.00000000000000e+00
+0.00000000000000e+00
+0.00000000000000e+00
+0.00000000000000e+00
+0.00000000000000e+00
+0.00000000000000e+00
+0.00000000000000e+00
+0.00000000000000e+00
+0.00000000000000e+00
+0.00000000000000e+00
+0.00000000000000e+00
+0.00000000000000e+00
+0.00000000000000e+00
+0.00000000000000e+00
+0.00000000000000e+00
+0.00000000000000e+00
+0.00000000000000e+00
+0.00000000000000e+00
+0.00000000000000e+00
+0.00000000000000e+00
+0.00000000000000e+00
+0.00000000000000e+00
+0.00000000000000e+00
+0.00000000000000e+00
+0.00000000000000e+00
+0.00000000000000e+00
+0.00000000000000e+00
+0.00000000000000e+00
+0.00000000000000e+00
+0.00000000000000e+00
+0.00000000000000e+00
+0.00000000000000e+00
+0.00000000000000e+00
+0.00000000000000e+00
+0.00000000000000e+00
+0.00000000000000e+00
+0.00000000000000e+00
+0.00000000000000e+00
+0.00000000000000e+00
+0.00000000000000e+00
+0.00000000000000e+00
+0.00000000000000e+00
+0.00000000000000e+00
+0.00000000000000e+00
+0.00000000000000e+00
+0.00000000000000e+00
+0.00000000000000e+00
+0.00000000000000e+00
+0.00000000000000e+00
+0.00000000000000e+00
+0.00000000000000e+00
+0.00000000000000e+00
+2.93000000000000e+02
+2.93000000000000e+02
+2.93000000000000e+02
+2.93000000000000e+02
+2.93000000000000e+02
+2.93000000000000e+02
+2.93000000000000e+02
+2.93000000000000e+02
+2.93000000000000e+02
+2.93000000000000e+02
+2.93000000000000e+02
+2.93000000000000e+02
+2.93000000000000e+02
+2.93000000000000e+02
+2.93000000000000e+02
+2.93000000000000e+02
+2.93000000000000e+02
+2.93000000000000e+02
+2.93000000000000e+02
+2.93000000000000e+02
+2.93000000000000e+02
+2.93000000000000e+02
+2.93000000000000e+02
+2.93000000000000e+02
+2.93000000000000e+02
+2.93000000000000e+02
+2.93000000000000e+02
+2.93000000000000e+02
+2.93000000000000e+02
+2.93000000000000e+02
+2.93000000000000e+02
+2.93000000000000e+02
+2.93000000000000e+02
+2.93000000000000e+02
+2.93000000000000e+02
+2.93000000000000e+02
+2.93000000000000e+02
+2.93000000000000e+02
+2.93000000000000e+02
+2.93000000000000e+02
+2.93000000000000e+02
+2.93000000000000e+02
+2.93000000000000e+02
+2.93000000000000e+02
+2.93000000000000e+02
+2.93000000000000e+02
+2.93000000000000e+02
+2.93000000000000e+02
+2.93000000000000e+02
+2.93000000000000e+02
+2.93000000000000e+02
+2.93000000000000e+02
+2.93000000000000e+02
+2.93000000000000e+02
+2.93000000000000e+02
+2.93000000000000e+02
+2.93000000000000e+02
+2.93000000000000e+02
+2.93000000000000e+02
+2.93000000000000e+02
+2.93000000000000e+02
+2.93000000000000e+02
+2.93000000000000e+02
+2.93000000000000e+02
+2.93000000000000e+02
+2.93000000000000e+02
+2.93000000000000e+02
+2.93000000000000e+02
+2.93000000000000e+02
+2.93000000000000e+02
+2.93000000000000e+02
+2.93000000000000e+02
+2.93000000000000e+02
+2.93000000000000e+02
+2.93000000000000e+02
+2.93000000000000e+02
+2.93000000000000e+02
+2.93000000000000e+02
+2.93000000000000e+02
+2.93000000000000e+02
+2.93000000000000e+02
+2.93000000000000e+02
+2.93000000000000e+02
+2.93000000000000e+02
+2.93000000000000e+02
+2.93000000000000e+02
+2.93000000000000e+02
+2.93000000000000e+02
+2.93000000000000e+02
+2.93000000000000e+02
+2.93000000000000e+02
+2.93000000000000e+02
+2.93000000000000e+02
+2.93000000000000e+02
+2.93000000000000e+02
+2.93000000000000e+02
+2.93000000000000e+02
+2.93000000000000e+02
+2.93000000000000e+02
+2.93000000000000e+02
+2.93000000000000e+02
+2.93000000000000e+02
+2.93000000000000e+02
+2.93000000000000e+02
+2.93000000000000e+02
+2.93000000000000e+02
+2.93000000000000e+02
+2.93000000000000e+02
+2.93000000000000e+02
+2.93000000000000e+02
+2.93000000000000e+02
+2.93000000000000e+02
+2.93000000000000e+02
+2.93000000000000e+02
+2.93000000000000e+02
+2.93000000000000e+02
+2.93000000000000e+02
+2.93000000000000e+02
+2.93000000000000e+02
+2.93000000000000e+02
+2.93000000000000e+02
+2.93000000000000e+02
+2.93000000000000e+02
+2.93000000000000e+02
+2.93000000000000e+02
+2.93000000000000e+02
+2.93000000000000e+02
+2.93000000000000e+02
+2.93000000000000e+02
+2.93000000000000e+02
+2.93000000000000e+02
+2.93000000000000e+02
+2.93000000000000e+02
+2.93000000000000e+02
+2.93000000000000e+02
+2.93000000000000e+02
+2.93000000000000e+02
+2.93000000000000e+02
+2.93000000000000e+02
+1.62750389714856e-01
+4.11440311374298e+00
+1.62701403990957e-01
+1.62664104365323e-01
+1.62680381752439e-01
+1.62696071710968e-01
+1.62709656174624e-01
+1.62719842168215e-01
+1.62727651676495e-01
+1.62733767989433e-01
+1.62738062134127e-01
+1.62739761448531e-01
+1.62738485901916e-01
+1.62735777092913e-01
+1.62733662183241e-01
+1.62735083840724e-01
+1.62740408325166e-01
+1.62747620545088e-01
+1.62756905790749e-01
+1.62767010684701e-01
+1.62776201929791e-01
+1.62784928289722e-01
+1.62790312044110e-01
+1.62792765513965e-01
+1.62808877776567e-01
+1.62823618270337e-01
+1.62824800058154e-01
+1.62824856796053e-01
+1.62824228375065e-01
+1.62826518471826e-01
+1.62829952949683e-01
+1.62833782798572e-01
+1.62839404472015e-01
+1.62846043407016e-01
+1.62851591230155e-01
+1.62854806762047e-01
+1.62855590418823e-01
+1.62855155960096e-01
+1.62853068267432e-01
+1.62847832412585e-01
+1.62841179080902e-01
+1.62836388811088e-01
+1.62834974909821e-01
+1.62833602162189e-01
+1.62831493904761e-01
+1.62828345183946e-01
+1.62825062635981e-01
+1.62819365465139e-01
+1.62810531584765e-01
+1.62799288536379e-01
+1.62783925146752e-01
+1.62767548949551e-01
+1.62751423747292e-01
+1.62734024203440e-01
+1.62714742939618e-01
+1.62694746007812e-01
+1.62672290607699e-01
+1.62645091153684e-01
+1.62614145692800e-01
+1.62581128827225e-01
+1.62543356960889e-01
+1.62498058324538e-01
+1.62445252477788e-01
+1.62389245517284e-01
+1.62330128342751e-01
+1.62264477332418e-01
+1.62193830808909e-01
+1.62119069792971e-01
+1.62039702593321e-01
+1.61951554401776e-01
+1.61853786846717e-01
+1.61746066390675e-01
+1.61627450481581e-01
+1.61498721136284e-01
+1.61361071377506e-01
+1.61210529875840e-01
+1.61043761081469e-01
+1.60865446806988e-01
+1.60669291364501e-01
+1.60453839536346e-01
+1.60218815798359e-01
+1.59958253000737e-01
+1.59671883920506e-01
+1.59357522803116e-01
+1.59017655467036e-01
+1.58655588724805e-01
+1.58268588836026e-01
+1.57857043244837e-01
+1.57426558669955e-01
+1.56979285415362e-01
+1.56516651222838e-01
+1.56030608432583e-01
+1.55514577000025e-01
+1.54963574692850e-01
+1.54365599172839e-01
+1.53715053448441e-01
+1.53008197085141e-01
+1.52252343003424e-01
+1.51465381917281e-01
+1.50657259808329e-01
+1.49819169650950e-01
+1.48930946782282e-01
+1.48019216118764e-01
+1.47113356423898e-01
+1.46233575601666e-01
+1.45406621819886e-01
+1.44674202466717e-01
+1.44087929329387e-01
+1.43712213179138e-01
+1.43639324953952e-01
+1.43992576559253e-01
+1.44935378244015e-01
+1.46692899850042e-01
+1.49593410765532e-01
+1.54400119462817e-01
+1.60841499528715e-01
+1.68835188270021e-01
+1.78241447415068e-01
+1.88883731537518e-01
+2.00559504816202e-01
+2.13042666779110e-01
+2.26199931662754e-01
+2.40291230238474e-01
+2.61547203806451e-01
+2.83131863432426e-01
+3.01414357248457e-01
+3.23802040685315e-01
+3.80192208158381e-01
+5.25583819989349e-01
+7.54538260340295e-01
+1.04506386682842e+00
+1.39792042190522e+00
+1.77681678228506e+00
+2.17960375757845e+00
+2.67698064922372e+00
+3.16061378747840e+00
+3.57894277787160e+00
+3.96109977454291e+00
+4.12004700693665e+00
-5.20457057957596e+03
-5.20457057957596e+03
-5.20457057957596e+03
-5.20457057957596e+03
-5.20457057957596e+03
-5.20457057957596e+03
-5.20457057957596e+03
-5.20457057957596e+03
-5.20457057957596e+03
-5.20457057957596e+03
-5.20457057957596e+03
-5.20457057957596e+03
-5.20457057957596e+03
-5.20457057957596e+03
-5.20457057957596e+03
-5.20457057957596e+03
-5.20457057957596e+03
-5.20457057957596e+03
-5.20457057957596e+03
-5.20457057957596e+03
-5.20457057957596e+03
-5.20457057957596e+03
-5.20457057957596e+03
-5.20457057957596e+03
-5.20457057957596e+03
-5.20457057957596e+03
-5.20457057957596e+03
-5.20457057957596e+03
-5.20457057957596e+03
-5.20457057957596e+03
-5.20457057957596e+03
-5.20457057957596e+03
-5.20457057957596e+03
-5.20457057957596e+03
-5.20457057957596e+03
-5.20457057957596e+03
-5.20457057957596e+03
-5.20457057957596e+03
-5.20457057957596e+03
-5.20457057957596e+03
-5.20457057957596e+03
-5.20457057957596e+03
-5.20457057957596e+03
-5.20457057957596e+03
-5.20457057957596e+03
-5.20457057957596e+03
-5.20457057957596e+03
-5.20457057957596e+03
-5.20457057957596e+03
-5.20457057957596e+03
-5.20457057957596e+03
-5.20457057957596e+03
-5.20457057957596e+03
-5.20457057957596e+03
-5.20457057957596e+03
-5.20457057957596e+03
-5.20457057957596e+03
-5.20457057957596e+03
-5.20457057957596e+03
-5.20457057957596e+03
-5.20457057957596e+03
-5.20457057957596e+03
-5.20457057957596e+03
-5.20457057957596e+03
-5.20457057957596e+03
-5.20457057957596e+03
-5.20457057957596e+03
-5.20457057957596e+03
-5.20457057957596e+03
-5.20457057957596e+03
-5.20457057957596e+03
-5.20457057957596e+03
-5.20457057957596e+03
-5.20457057957596e+03
-5.20457057957596e+03
-5.20457057957596e+03
-5.20457057957596e+03
-5.20457057957596e+03
-5.20457057957596e+03
-5.20457057957596e+03
-5.20457057957596e+03
-5.20457057957596e+03
-5.20457057957596e+03
-5.20457057957596e+03
-5.20457057957596e+03
-5.20457057957596e+03
-5.20457057957596e+03
-5.20457057957596e+03
-5.20457057957596e+03
-5.20457057957596e+03
-5.20457057957596e+03
-5.20457057957596e+03
-5.20457057957596e+03
-5.20457057957596e+03
-5.20457057957596e+03
-5.20457057957596e+03
-5.20457057957596e+03
-5.20457057957596e+03
-5.20457057957596e+03
-5.20457057957596e+03
-5.20457057957596e+03
-5.20457057957596e+03
-5.20457057957596e+03
-5.20457057957596e+03
-5.20457057957596e+03
-5.20457057957596e+03
-5.20457057957596e+03
-5.20457057957596e+03
-5.20457057957596e+03
-5.20457057957596e+03
-5.20457057957596e+03
-5.20457057957596e+03
-5.20457057957596e+03
-5.20457057957596e+03
-5.20457057957596e+03
-5.20457057957596e+03
-5.20457057957596e+03
-5.20457057957596e+03
-5.20457057957596e+03
-5.20457057957596e+03
-5.20457057957596e+03
-5.20457057957596e+03
-5.20457057957596e+03
-5.20457057957596e+03
-5.20457057957596e+03
-5.20457057957596e+03
-5.20457057957596e+03
-5.20457057957596e+03
-5.20457057957596e+03
-5.20457057957596e+03
-5.20457057957596e+03
-5.20457057957596e+03
-5.20457057957596e+03
-5.20457057957596e+03
-5.20457057957596e+03
-5.20457057957596e+03
-5.20457057957596e+03
-5.20457057957596e+03
-5.20457057957596e+03
+0.00000000000000e+00
+0.00000000000000e+00
+0.00000000000000e+00
+0.00000000000000e+00
+0.00000000000000e+00
+0.00000000000000e+00
+0.00000000000000e+00
+0.00000000000000e+00
+0.00000000000000e+00
+0.00000000000000e+00
+0.00000000000000e+00
+0.00000000000000e+00
+0.00000000000000e+00
+0.00000000000000e+00
+0.00000000000000e+00
+0.00000000000000e+00
+0.00000000000000e+00
+0.00000000000000e+00
+0.00000000000000e+00
+0.00000000000000e+00
+0.00000000000000e+00
+0.00000000000000e+00
+0.00000000000000e+00
+0.00000000000000e+00
+0.00000000000000e+00
+0.00000000000000e+00
+0.00000000000000e+00
+0.00000000000000e+00
+0.00000000000000e+00
+0.00000000000000e+00
+0.00000000000000e+00
+0.00000000000000e+00
+0.00000000000000e+00
+0.00000000000000e+00
+0.00000000000000e+00
+0.00000000000000e+00
+0.00000000000000e+00
+0.00000000000000e+00
+0.00000000000000e+00
+0.00000000000000e+00
+0.00000000000000e+00
+0.00000000000000e+00
+0.00000000000000e+00
+0.00000000000000e+00
+0.00000000000000e+00
+0.00000000000000e+00
+0.00000000000000e+00
+0.00000000000000e+00
+0.00000000000000e+00
+0.00000000000000e+00
+0.00000000000000e+00
+0.00000000000000e+00
+0.00000000000000e+00
+0.00000000000000e+00
+0.00000000000000e+00
+0.00000000000000e+00
+0.00000000000000e+00
+0.00000000000000e+00
+0.00000000000000e+00
+0.00000000000000e+00
+0.00000000000000e+00
+0.00000000000000e+00
+0.00000000000000e+00
+0.00000000000000e+00
+0.00000000000000e+00
+0.00000000000000e+00
+0.00000000000000e+00
+0.00000000000000e+00
+0.00000000000000e+00
+0.00000000000000e+00
+0.00000000000000e+00
+0.00000000000000e+00
+0.00000000000000e+00
+0.00000000000000e+00
+0.00000000000000e+00
+0.00000000000000e+00
+0.00000000000000e+00
+0.00000000000000e+00
+0.00000000000000e+00
+0.00000000000000e+00
+0.00000000000000e+00
+0.00000000000000e+00
+0.00000000000000e+00
+0.00000000000000e+00
+0.00000000000000e+00
+0.00000000000000e+00
+0.00000000000000e+00
+0.00000000000000e+00
+0.00000000000000e+00
+0.00000000000000e+00
+0.00000000000000e+00
+0.00000000000000e+00
+0.00000000000000e+00
+0.00000000000000e+00
+0.00000000000000e+00
+0.00000000000000e+00
+0.00000000000000e+00
+0.00000000000000e+00
+0.00000000000000e+00
+0.00000000000000e+00
+0.00000000000000e+00
+0.00000000000000e+00
+0.00000000000000e+00
+0.00000000000000e+00
+0.00000000000000e+00
+0.00000000000000e+00
+0.00000000000000e+00
+0.00000000000000e+00
+0.00000000000000e+00
+0.00000000000000e+00
+0.00000000000000e+00
+0.00000000000000e+00
+0.00000000000000e+00
+0.00000000000000e+00
+0.00000000000000e+00
+0.00000000000000e+00
+0.00000000000000e+00
+0.00000000000000e+00
+0.00000000000000e+00
+0.00000000000000e+00
+0.00000000000000e+00
+0.00000000000000e+00
+0.00000000000000e+00
+0.00000000000000e+00
+0.00000000000000e+00
+0.00000000000000e+00
+0.00000000000000e+00
+0.00000000000000e+00
+0.00000000000000e+00
+0.00000000000000e+00
+0.00000000000000e+00
+0.00000000000000e+00
+0.00000000000000e+00
+0.00000000000000e+00
+0.00000000000000e+00
+0.00000000000000e+00
+0.00000000000000e+00
+0.00000000000000e+00
+0.00000000000000e+00
+0.00000000000000e+00
+0.00000000000000e+00
+0.00000000000000e+00
+0.00000000000000e+00
+0.00000000000000e+00
+0.00000000000000e+00
+0.00000000000000e+00
+0.00000000000000e+00
+0.00000000000000e+00
+0.00000000000000e+00
+0.00000000000000e+00
+0.00000000000000e+00
+0.00000000000000e+00
+0.00000000000000e+00
+0.00000000000000e+00
+0.00000000000000e+00
+0.00000000000000e+00
+0.00000000000000e+00
+0.00000000000000e+00
+0.00000000000000e+00
+0.00000000000000e+00
+0.00000000000000e+00
+0.00000000000000e+00
+0.00000000000000e+00
+0.00000000000000e+00
+0.00000000000000e+00
+0.00000000000000e+00
+0.00000000000000e+00
+0.00000000000000e+00
+0.00000000000000e+00
+0.00000000000000e+00
+0.00000000000000e+00
+0.00000000000000e+00
+0.00000000000000e+00
+0.00000000000000e+00
+0.00000000000000e+00
+0.00000000000000e+00
+0.00000000000000e+00
+0.00000000000000e+00
+0.00000000000000e+00
+0.00000000000000e+00
+0.00000000000000e+00
+0.00000000000000e+00
+0.00000000000000e+00
+0.00000000000000e+00
+0.00000000000000e+00
+0.00000000000000e+00
+0.00000000000000e+00
+0.00000000000000e+00
+0.00000000000000e+00
+0.00000000000000e+00
+0.00000000000000e+00
+0.00000000000000e+00
+0.00000000000000e+00
+0.00000000000000e+00
+0.00000000000000e+00
+0.00000000000000e+00
+0.00000000000000e+00
+0.00000000000000e+00
+0.00000000000000e+00
+0.00000000000000e+00
+0.00000000000000e+00
+0.00000000000000e+00
+0.00000000000000e+00
+0.00000000000000e+00
+0.00000000000000e+00
+0.00000000000000e+00
+0.00000000000000e+00
+0.00000000000000e+00
+0.00000000000000e+00
+0.00000000000000e+00
+0.00000000000000e+00
+0.00000000000000e+00
+0.00000000000000e+00
+0.00000000000000e+00
+0.00000000000000e+00
+0.00000000000000e+00
+0.00000000000000e+00
+0.00000000000000e+00
+0.00000000000000e+00
+0.00000000000000e+00
+0.00000000000000e+00
+0.00000000000000e+00
+0.00000000000000e+00
+0.00000000000000e+00
+0.00000000000000e+00
+0.00000000000000e+00
+0.00000000000000e+00
+0.00000000000000e+00
+0.00000000000000e+00
+0.00000000000000e+00
+0.00000000000000e+00
+0.00000000000000e+00
+0.00000000000000e+00
+0.00000000000000e+00
+0.00000000000000e+00
+0.00000000000000e+00
+0.00000000000000e+00
+0.00000000000000e+00