TITLE = Boundary data
VARIABLES =  "x0" "x1" "p" "u" "v" "T" "rho" "H" "M" "xc0" "xc1" "xc2" "xc3" "xc4"
ZONE   T= "ZONE0 wall", N=2601, E=2600, ZONETYPE=FELINESEG, DATAPACKING=BLOCK, STRANDID=1, SOLUTIONTIME=1.52000000000000e+04, VARLOCATION=( [1-2]=NODAL,[3-6]=NODAL,[7-14]=NODAL)
+1.80137697600000e-02
+2.02091001000000e-02
+1.80137939800000e-02
+1.80138666200000e-02
+1.80139876900000e-02
+1.80141627800000e-02
+1.80143881600000e-02
+1.80146675600000e-02
+1.80150046900000e-02
+1.80153977100000e-02
+1.80158503400000e-02
+1.80163625600000e-02
+1.80169381200000e-02
+1.80175770100000e-02
+1.80182810900000e-02
+1.80190522200000e-02
+1.80198922800000e-02
+1.80208031100000e-02
+1.80217884500000e-02
+1.80228464300000e-02
+1.80239807800000e-02
+1.80251952300000e-02
+1.80264897600000e-02
+1.80278644000000e-02
+1.80293265700000e-02
+1.80308744300000e-02
+1.80325117000000e-02
+1.80342383700000e-02
+1.80360600400000e-02
+1.80379767000000e-02
+1.80399920800000e-02
+1.80421061800000e-02
+1.80443264500000e-02
+1.80466491700000e-02
+1.80490817900000e-02
+1.80516224400000e-02
+1.80542785700000e-02
+1.80570501800000e-02
+1.80599391500000e-02
+1.80629510400000e-02
+1.80660877400000e-02
+1.80693492300000e-02
+1.80727411100000e-02
+1.80762670900000e-02
+1.80799290500000e-02
+1.80837307100000e-02
+1.80876720700000e-02
+1.80917624400000e-02
+1.80959999600000e-02
+1.81003883500000e-02
+1.81049350600000e-02
+1.81096382400000e-02
+1.81145053400000e-02
+1.81195382000000e-02
+1.81247424300000e-02
+1.81301180300000e-02
+1.81356705700000e-02
+1.81414056600000e-02
+1.81473251400000e-02
+1.81534327600000e-02
+1.81597322200000e-02
+1.81662291300000e-02
+1.81729272000000e-02
+1.81798301600000e-02
+1.81869436100000e-02
+1.81942693900000e-02
+1.82018112400000e-02
+1.82095784700000e-02
+1.82175692200000e-02
+1.82257946600000e-02
+1.82342529300000e-02
+1.82429533500000e-02
+1.82518977700000e-02
+1.82610936500000e-02
+1.82705447100000e-02
+1.82802528100000e-02
+1.82902272800000e-02
+1.83004718300000e-02
+1.83109920500000e-02
+1.83217916600000e-02
+1.83328762700000e-02
+1.83442514400000e-02
+1.83559227700000e-02
+1.83678958600000e-02
+1.83801744100000e-02
+1.83927658900000e-02
+1.84056740300000e-02
+1.84189062600000e-02
+1.84324681800000e-02
+1.84463653700000e-02
+1.84606034300000e-02
+1.84751860800000e-02
+1.84901226300000e-02
+1.85054168100000e-02
+1.85210742100000e-02
+1.85371022700000e-02
+1.85535065800000e-02
+1.85702908800000e-02
+1.85874644700000e-02
+1.86050310700000e-02
+1.86229981500000e-02
+1.86413712800000e-02
+1.86599772400000e-02
+1.86786353600000e-02
+1.86973363200000e-02
+1.87160782500000e-02
+1.87348499900000e-02
+1.87536478000000e-02
+1.87724642500000e-02
+1.87912937300000e-02
+1.88101306600000e-02
+1.88289675900000e-02
+1.88478026500000e-02
+1.88666284100000e-02
+1.88854392600000e-02
+1.89042333500000e-02
+1.89230050900000e-02
+1.89417488900000e-02
+1.89604591600000e-02
+1.89791340400000e-02
+1.89977698000000e-02
+1.90163627300000e-02
+1.90349072200000e-02
+1.90534014300000e-02
+1.90718416100000e-02
+1.90902240600000e-02
+1.91085469000000e-02
+1.91268045500000e-02
+1.91449988600000e-02
+1.91631224000000e-02
+1.91811732900000e-02
+1.91991515500000e-02
+1.92170534300000e-02
+1.92348770800000e-02
+1.92526206400000e-02
+1.92702785100000e-02
+1.92878544300000e-02
+1.93053409500000e-02
+1.93227399100000e-02
+1.93400494800000e-02
+1.93572659000000e-02
+1.93743892000000e-02
+1.93914175000000e-02
+1.94083508100000e-02
+1.94251854000000e-02
+1.94419212600000e-02
+1.94585565500000e-02
+1.94750912500000e-02
+1.94915253700000e-02
+1.95078551800000e-02
+1.95240825400000e-02
+1.95402037400000e-02
+1.95562206200000e-02
+1.95721313400000e-02
+1.95879377400000e-02
+1.96036342500000e-02
+1.96192245900000e-02
+1.96347087600000e-02
+1.96500811700000e-02
+1.96653474100000e-02
+1.96805056200000e-02
+1.96955539300000e-02
+1.97104904800000e-02
+1.97253208600000e-02
+1.97400394800000e-02
+1.97546482100000e-02
+1.97691489000000e-02
+1.97835378300000e-02
+1.97978187400000e-02
+1.98119897400000e-02
+1.98260508500000e-02
+1.98400002000000e-02
+1.98538433800000e-02
+1.98675766600000e-02
+1.98812000500000e-02
+1.98947154000000e-02
+1.99081208600000e-02
+1.99214201400000e-02
+1.99346095300000e-02
+1.99476927500000e-02
+1.99606660800000e-02
+1.99735350900000e-02
+1.99862960700000e-02
+1.99989527500000e-02
+2.00115013900000e-02
+2.00239457200000e-02
+2.00362838800000e-02
+2.00485177300000e-02
+2.00606491400000e-02
+2.00726743800000e-02
+2.00845990300000e-02
+2.00964193800000e-02
+2.01081372800000e-02
+2.01197546000000e-02
+2.01312713300000e-02
+2.01426874800000e-02
+2.01540011900000e-02
+2.01652180400000e-02
+2.01763343100000e-02
+2.01873537200000e-02
+2.01982762700000e-02
+6.25000000000000e-02
+2.02199276500000e-02
+2.02338807300000e-02
+2.02518645700000e-02
+2.02750433200000e-02
+2.03049145600000e-02
+2.03434154400000e-02
+2.03930344400000e-02
+2.04569846400000e-02
+2.05394029600000e-02
+2.06456258900000e-02
+2.07825284500000e-02
+2.09589693700000e-02
+2.11863685400000e-02
+2.14794427200000e-02
+2.18571610700000e-02
+2.23439708400000e-02
+2.29713767800000e-02
+2.37799864300000e-02
+2.48221345200000e-02
+2.61652674500000e-02
+2.78963148600000e-02
+3.01273129900000e-02
+3.30026522300000e-02
+3.67084294600000e-02
+4.14844825900000e-02
+4.62605394400000e-02
+4.99529168000000e-02
+5.28074987200000e-02
+5.50143830500000e-02
+5.67205287500000e-02
+5.80395534600000e-02
+5.90592958000000e-02
+5.98476566400000e-02
+6.04571402100000e-02
+6.09283372800000e-02
+6.12926185100000e-02
+6.15742430100000e-02
+6.17919676000000e-02
+6.19602948400000e-02
+6.20904266800000e-02
+6.21910281500000e-02
+6.22688084800000e-02
+6.23289383900000e-02
+6.23754262900000e-02
+6.24113641700000e-02
+6.24391473800000e-02
+6.24606311300000e-02
+6.24772347500000e-02
+6.24900758300000e-02
+9.92546230600000e-02
+6.25099241700000e-02
+6.25218600000000e-02
+6.25362098200000e-02
+6.25534728200000e-02
+6.25742226800000e-02
+6.25991821300000e-02
+6.26291856200000e-02
+6.26652762300000e-02
+6.27086684100000e-02
+6.27608448300000e-02
+6.28235936200000e-02
+6.28990456500000e-02
+6.29897713700000e-02
+6.30988776700000e-02
+6.32300749400000e-02
+6.33878335400000e-02
+6.35775402200000e-02
+6.38056621000000e-02
+6.40799775700000e-02
+6.44098445800000e-02
+6.48065060400000e-02
+6.52834847600000e-02
+6.58570528000000e-02
+6.65467679500000e-02
+6.73761442300000e-02
+6.83734640500000e-02
+6.95727393000000e-02
+7.10148587800000e-02
+7.27490037700000e-02
+7.48343095200000e-02
+7.69196078200000e-02
+7.88424685600000e-02
+8.06155502800000e-02
+8.22505131400000e-02
+8.37581157700000e-02
+8.51482823500000e-02
+8.64301621900000e-02
+8.76121893500000e-02
+8.87021422400000e-02
+8.97071883100000e-02
+9.06339436800000e-02
+9.14885103700000e-02
+9.22765061300000e-02
+9.30031240000000e-02
+9.36731398100000e-02
+9.42909643100000e-02
+9.48606580500000e-02
+9.53859761400000e-02
+9.58703756300000e-02
+9.63170453900000e-02
+9.67289134900000e-02
+9.71087068300000e-02
+9.74589064700000e-02
+9.77818369900000e-02
+9.80796068900000e-02
+9.83541831400000e-02
+9.86073687700000e-02
+9.88408327100000e-02
+9.90561097900000e-02
+1.38956457400000e-01
+9.94531288700000e-02
+9.96581614000000e-02
+9.98699441600000e-02
+1.00088678300000e-01
+1.00314617200000e-01
+1.00547976800000e-01
+1.00789018000000e-01
+1.01037979100000e-01
+1.01295128500000e-01
+1.01560726800000e-01
+1.01835057100000e-01
+1.02118417600000e-01
+1.02411098800000e-01
+1.02713391200000e-01
+1.03025630100000e-01
+1.03348143400000e-01
+1.03681236500000e-01
+1.04025311800000e-01
+1.04380682100000e-01
+1.04747742400000e-01
+1.05126872700000e-01
+1.05518467700000e-01
+1.05922937400000e-01
+1.06340706300000e-01
+1.06772221600000e-01
+1.07217922800000e-01
+1.07678271800000e-01
+1.08153760400000e-01
+1.08644880400000e-01
+1.09152160600000e-01
+1.09676107800000e-01
+1.10217288100000e-01
+1.10776267900000e-01
+1.11353620900000e-01
+1.11949957900000e-01
+1.12565912300000e-01
+1.13202109900000e-01
+1.13859228800000e-01
+1.14537961800000e-01
+1.15239009300000e-01
+1.15963101400000e-01
+1.16711013000000e-01
+1.17483511600000e-01
+1.18281409100000e-01
+1.19105540200000e-01
+1.19929671300000e-01
+1.20727568900000e-01
+1.21500067400000e-01
+1.22247979000000e-01
+1.22972071200000e-01
+1.23673118700000e-01
+1.24351851600000e-01
+1.25008970500000e-01
+1.25645175600000e-01
+1.26261115100000e-01
+1.26857459500000e-01
+1.27434805000000e-01
+1.27993792300000e-01
+1.28534972700000e-01
+1.29058927300000e-01
+1.29566192600000e-01
+1.30057320000000e-01
+1.30532816100000e-01
+1.30993157600000e-01
+1.31438866300000e-01
+1.31870374100000e-01
+1.32288143000000e-01
+1.32692605300000e-01
+1.33084207800000e-01
+1.33463338000000e-01
+1.33830398300000e-01
+1.34185776100000e-01
+1.34529843900000e-01
+1.34862944500000e-01
+1.35185450300000e-01
+1.35497689200000e-01
+1.35799974200000e-01
+1.36092662800000e-01
+1.36376023300000e-01
+1.36650353700000e-01
+1.36915952000000e-01
+1.37173101300000e-01
+1.37422055000000e-01
+1.37663096200000e-01
+1.37896463300000e-01
+1.38122394700000e-01
+1.38341143700000e-01
+1.38552919000000e-01
+1.38757944100000e-01
+1.88583776400000e-01
+1.39154970600000e-01
+1.39352664400000e-01
+1.39549538500000e-01
+1.39745622900000e-01
+1.39940887700000e-01
+1.40135347800000e-01
+1.40329018200000e-01
+1.40521884000000e-01
+1.40713974800000e-01
+1.40905275900000e-01
+1.41095772400000e-01
+1.41285494000000e-01
+1.41474440700000e-01
+1.41662612600000e-01
+1.41850009600000e-01
+1.42036646600000e-01
+1.42222493900000e-01
+1.42407596100000e-01
+1.42591923500000e-01
+1.42775505800000e-01
+1.42958343000000e-01
+1.43140420300000e-01
+1.43321737600000e-01
+1.43502324800000e-01
+1.43682166900000e-01
+1.43861264000000e-01
+1.44039645800000e-01
+1.44217282500000e-01
+1.44394174200000e-01
+1.44570365500000e-01
+1.44745826700000e-01
+1.44920557700000e-01
+1.45094573500000e-01
+1.45267874000000e-01
+1.45440474200000e-01
+1.45612359000000e-01
+1.45783528700000e-01
+1.45954012900000e-01
+1.46123781800000e-01
+1.46292865300000e-01
+1.46461248400000e-01
+1.46628946100000e-01
+1.46795943400000e-01
+1.46962255200000e-01
+1.47127896500000e-01
+1.47292852400000e-01
+1.47457122800000e-01
+1.47620722700000e-01
+1.47783666800000e-01
+1.47945925600000e-01
+1.48107513800000e-01
+1.48268446300000e-01
+1.48428723200000e-01
+1.48588329600000e-01
+1.48747295100000e-01
+1.48905605100000e-01
+1.49063244500000e-01
+1.49220258000000e-01
+1.49376615900000e-01
+1.49532333000000e-01
+1.49687424300000e-01
+1.49841874800000e-01
+1.49995684600000e-01
+1.50148853700000e-01
+1.50301411700000e-01
+1.50453329100000e-01
+1.50604635500000e-01
+1.50755316000000e-01
+1.50905370700000e-01
+1.51054814500000e-01
+1.51203647300000e-01
+1.51351854200000e-01
+1.51499465100000e-01
+1.51646465100000e-01
+1.51792869000000e-01
+1.51938676800000e-01
+1.52083873700000e-01
+1.52228474600000e-01
+1.52372494300000e-01
+1.52515903100000e-01
+1.52658745600000e-01
+1.52800977200000e-01
+1.52942642600000e-01
+1.53083726800000e-01
+1.53224214900000e-01
+1.53364136800000e-01
+1.53503477600000e-01
+1.53642267000000e-01
+1.53780460400000e-01
+1.53918102400000e-01
+1.54055163300000e-01
+1.54191672800000e-01
+1.54327631000000e-01
+1.54463022900000e-01
+1.54597863600000e-01
+1.54732137900000e-01
+1.54865875800000e-01
+1.54999047500000e-01
+1.55131682800000e-01
+1.55263766600000e-01
+1.55395314100000e-01
+1.55526325100000e-01
+1.55656784800000e-01
+1.55786722900000e-01
+1.55916124600000e-01
+1.56044989800000e-01
+1.56173333500000e-01
+1.56301140800000e-01
+1.56428426500000e-01
+1.56555190700000e-01
+1.56681433300000e-01
+1.56807154400000e-01
+1.56932368900000e-01
+1.57057061800000e-01
+1.57181248100000e-01
+1.57304912800000e-01
+1.57428085800000e-01
+1.57550737300000e-01
+1.57672897000000e-01
+1.57794550100000e-01
+1.57915711400000e-01
+1.58036366100000e-01
+1.58156514200000e-01
+1.58276185400000e-01
+1.58395364900000e-01
+1.58514052600000e-01
+1.58632263500000e-01
+1.58749967800000e-01
+1.58867195200000e-01
+1.58983945800000e-01
+1.59100219600000e-01
+1.59216016500000e-01
+1.59331336600000e-01
+1.59446179900000e-01
+1.59560546300000e-01
+1.59674450800000e-01
+1.59787893300000e-01
+1.59900859000000e-01
+1.60013362800000e-01
+1.60125404600000e-01
+1.60236984500000e-01
+1.60348117400000e-01
+1.60458773400000e-01
+1.60568997300000e-01
+1.60678759200000e-01
+1.60788074100000e-01
+1.60896927100000e-01
+1.61005348000000e-01
+1.61113321800000e-01
+1.61220833700000e-01
+1.61327928300000e-01
+1.61434575900000e-01
+1.61540776500000e-01
+1.61646544900000e-01
+1.61751896100000e-01
+1.61856785400000e-01
+1.61961272400000e-01
+1.62065312300000e-01
+1.62168934900000e-01
+1.62272125500000e-01
+1.62374883900000e-01
+1.62477240000000e-01
+1.62579163900000e-01
+1.62680670600000e-01
+1.62781760100000e-01
+1.62882447200000e-01
+1.62982702300000e-01
+1.63082554900000e-01
+1.63181990400000e-01
+1.63281023500000e-01
+1.63379654300000e-01
+1.63477867800000e-01
+1.63575679100000e-01
+1.63673102900000e-01
+1.63770109400000e-01
+1.63867130900000e-01
+1.63964554700000e-01
+1.64062365900000e-01
+1.64160579400000e-01
+1.64259210200000e-01
+1.64358243300000e-01
+1.64457678800000e-01
+1.64557531500000e-01
+1.64657786500000e-01
+1.64758473600000e-01
+1.64859563100000e-01
+1.64961069800000e-01
+1.65062993800000e-01
+1.65165334900000e-01
+1.65268108200000e-01
+1.65371298800000e-01
+1.65474921500000e-01
+1.65578961400000e-01
+1.65683433400000e-01
+1.65788337600000e-01
+1.65893673900000e-01
+1.65999457200000e-01
+1.66105657800000e-01
+1.66212305400000e-01
+1.66319385200000e-01
+1.66426912000000e-01
+1.66534885800000e-01
+1.66643306600000e-01
+1.66752159600000e-01
+1.66861474500000e-01
+1.66971236500000e-01
+1.67081445500000e-01
+1.67192116400000e-01
+1.67303234300000e-01
+1.67414814200000e-01
+1.67526871000000e-01
+1.67639374700000e-01
+1.67752340400000e-01
+1.67865783000000e-01
+1.67979672600000e-01
+1.68094053900000e-01
+1.68208897100000e-01
+1.68324217200000e-01
+1.68440014100000e-01
+1.68556273000000e-01
+1.68673023600000e-01
+1.68790265900000e-01
+1.68907970200000e-01
+1.69026166200000e-01
+1.69144853900000e-01
+1.69264033400000e-01
+1.69383704700000e-01
+1.69503867600000e-01
+1.69624522300000e-01
+1.69745683700000e-01
+1.69867336800000e-01
+1.69989496500000e-01
+1.70112147900000e-01
+1.70235306000000e-01
+1.70358985700000e-01
+1.70483171900000e-01
+1.70607864900000e-01
+1.70733064400000e-01
+1.70858800400000e-01
+1.70985043000000e-01
+1.71111807200000e-01
+1.71239092900000e-01
+1.71366900200000e-01
+1.71495243900000e-01
+1.71624109100000e-01
+1.71753510800000e-01
+1.71883434100000e-01
+1.72013908600000e-01
+1.72144904700000e-01
+1.72276467100000e-01
+1.72408551000000e-01
+1.72541186200000e-01
+1.72674357900000e-01
+1.72808095800000e-01
+1.72942370200000e-01
+1.73077210800000e-01
+1.73212602700000e-01
+1.73348546000000e-01
+1.73485055600000e-01
+1.73622131300000e-01
+1.73759773400000e-01
+1.73897966700000e-01
+1.74036756200000e-01
+1.74176096900000e-01
+1.74316018800000e-01
+1.74456507000000e-01
+1.74597591200000e-01
+1.74739256500000e-01
+1.74881488100000e-01
+1.75024315700000e-01
+1.75167739400000e-01
+1.75311744200000e-01
+1.75456360000000e-01
+1.75601556900000e-01
+1.75747364800000e-01
+1.75893753800000e-01
+1.76040753700000e-01
+1.76188364600000e-01
+1.76336586500000e-01
+1.76485419300000e-01
+1.76634863000000e-01
+1.76784917700000e-01
+1.76935598300000e-01
+1.77086904600000e-01
+1.77238822000000e-01
+1.77391365200000e-01
+1.77544549100000e-01
+1.77698358900000e-01
+1.77852809400000e-01
+1.78007885800000e-01
+1.78163602900000e-01
+1.78319975700000e-01
+1.78476974400000e-01
+1.78634628700000e-01
+1.78792938600000e-01
+1.78951904200000e-01
+1.79111510500000e-01
+1.79271787400000e-01
+1.79432705000000e-01
+1.79594308100000e-01
+1.79756566900000e-01
+1.79919496200000e-01
+1.80083096000000e-01
+1.80247381300000e-01
+1.80412337200000e-01
+1.80577963600000e-01
+1.80744290400000e-01
+1.80911287700000e-01
+1.81078985300000e-01
+1.81247368500000e-01
+1.81416451900000e-01
+1.81586220900000e-01
+1.81756705000000e-01
+1.81927874700000e-01
+1.82099759600000e-01
+1.82272344800000e-01
+1.82445645300000e-01
+1.82619676000000e-01
+1.82794407000000e-01
+1.82969868200000e-01
+1.83146044600000e-01
+1.83322951200000e-01
+1.83500587900000e-01
+1.83678954800000e-01
+1.83858066800000e-01
+1.84037894000000e-01
+1.84218496100000e-01
+1.84399813400000e-01
+1.84581890700000e-01
+1.84764713000000e-01
+1.84948295400000e-01
+1.85132637600000e-01
+1.85317724900000e-01
+1.85503587100000e-01
+1.85690224200000e-01
+1.85877621200000e-01
+1.86065793000000e-01
+1.86254724900000e-01
+1.86444461300000e-01
+1.86634957800000e-01
+1.86826258900000e-01
+1.87018334900000e-01
+1.87211215500000e-01
+1.87404885900000e-01
+1.87599346000000e-01
+1.87794610900000e-01
+1.87990695200000e-01
+1.88187569400000e-01
+1.88385263100000e-01
+2.67987459900000e-01
+1.88782274700000e-01
+1.88983321200000e-01
+1.89186930700000e-01
+1.89393132900000e-01
+1.89601957800000e-01
+1.89813450000000e-01
+1.90027639300000e-01
+1.90244555500000e-01
+1.90464243300000e-01
+1.90686732500000e-01
+1.90912053000000e-01
+1.91140249400000e-01
+1.91371366400000e-01
+1.91605404000000e-01
+1.91842436800000e-01
+1.92082494500000e-01
+1.92325621800000e-01
+1.92571833700000e-01
+1.92821204700000e-01
+1.93073734600000e-01
+1.93329498200000e-01
+1.93588525100000e-01
+1.93850845100000e-01
+1.94116503000000e-01
+1.94385558400000e-01
+1.94658041000000e-01
+1.94933995600000e-01
+1.95213466900000e-01
+1.95496514400000e-01
+1.95783153200000e-01
+1.96073457600000e-01
+1.96367472400000e-01
+1.96665227400000e-01
+1.96966767300000e-01
+1.97272166600000e-01
+1.97581455100000e-01
+1.97894692400000e-01
+1.98211908300000e-01
+1.98533177400000e-01
+1.98858544200000e-01
+1.99188053600000e-01
+1.99521780000000e-01
+1.99859753300000e-01
+2.00202032900000e-01
+2.00548663700000e-01
+2.00899735100000e-01
+2.01255276800000e-01
+2.01615348500000e-01
+2.01980009700000e-01
+2.02349335000000e-01
+2.02723354100000e-01
+2.03102141600000e-01
+2.03485757100000e-01
+2.03874275100000e-01
+2.04267740200000e-01
+2.04666227100000e-01
+2.05069780300000e-01
+2.05478489400000e-01
+2.05892413900000e-01
+2.06311613300000e-01
+2.06736147400000e-01
+2.07166105500000e-01
+2.07601547200000e-01
+2.08042532200000e-01
+2.08489134900000e-01
+2.08941444800000e-01
+2.09399506400000e-01
+2.09863424300000e-01
+2.10333257900000e-01
+2.10809066900000e-01
+2.11290955500000e-01
+2.11778983500000e-01
+2.12273240100000e-01
+2.12773785000000e-01
+2.13280737400000e-01
+2.13794127100000e-01
+2.14314073300000e-01
+2.14840635700000e-01
+2.15373933300000e-01
+2.15914025900000e-01
+2.16460987900000e-01
+2.17014938600000e-01
+2.17575937500000e-01
+2.18144103900000e-01
+2.18719512200000e-01
+2.19302266800000e-01
+2.19892427300000e-01
+2.20490127800000e-01
+2.21095442800000e-01
+2.21708476500000e-01
+2.22329333400000e-01
+2.22958102800000e-01
+2.23594889000000e-01
+2.24239796400000e-01
+2.24892914300000e-01
+2.25554376800000e-01
+2.26224273400000e-01
+2.26902693500000e-01
+2.27589786100000e-01
+2.28285625600000e-01
+2.28981450200000e-01
+2.29668527800000e-01
+2.30346962800000e-01
+2.31016844500000e-01
+2.31678307100000e-01
+2.32331425000000e-01
+2.32976347200000e-01
+2.33613118500000e-01
+2.34241887900000e-01
+2.34862744800000e-01
+2.35475778600000e-01
+2.36081093500000e-01
+2.36678794000000e-01
+2.37268969400000e-01
+2.37851724000000e-01
+2.38427117500000e-01
+2.38995283800000e-01
+2.39556282800000e-01
+2.40110233400000e-01
+2.40657210400000e-01
+2.41197302900000e-01
+2.41730585700000e-01
+2.42257162900000e-01
+2.42777109100000e-01
+2.43290498900000e-01
+2.43797436400000e-01
+2.44297996200000e-01
+2.44792237900000e-01
+2.45280265800000e-01
+2.45762154500000e-01
+2.46237963400000e-01
+2.46707797100000e-01
+2.47171714900000e-01
+2.47629791500000e-01
+2.48082086400000e-01
+2.48528704000000e-01
+2.48969689000000e-01
+2.49405130700000e-01
+2.49835073900000e-01
+2.50259608000000e-01
+2.50678807500000e-01
+2.51092732000000e-01
+2.51501441000000e-01
+2.51905024100000e-01
+2.52303481100000e-01
+2.52696961200000e-01
+2.53085464200000e-01
+2.53469079700000e-01
+2.53847867300000e-01
+2.54221886400000e-01
+2.54591226600000e-01
+2.54955887800000e-01
+2.55315959500000e-01
+2.55671501200000e-01
+2.56022572500000e-01
+2.56369203300000e-01
+2.56711483000000e-01
+2.57049441300000e-01
+2.57383167700000e-01
+2.57712692000000e-01
+2.58038044000000e-01
+2.58359313000000e-01
+2.58676528900000e-01
+2.58989781100000e-01
+2.59299069600000e-01
+2.59604454000000e-01
+2.59906023700000e-01
+2.60203748900000e-01
+2.60497778700000e-01
+2.60788083100000e-01
+2.61074721800000e-01
+2.61357754500000e-01
+2.61637240600000e-01
+2.61913180400000e-01
+2.62185663000000e-01
+2.62454718400000e-01
+2.62720376300000e-01
+2.62982696300000e-01
+2.63241738100000e-01
+2.63497501600000e-01
+2.63750016700000e-01
+2.63999402500000e-01
+2.64245599500000e-01
+2.64488726900000e-01
+2.64728784600000e-01
+2.64965832200000e-01
+2.65199869900000e-01
+2.65430986900000e-01
+2.65659183300000e-01
+2.65884488800000e-01
+2.66106993000000e-01
+2.66326665900000e-01
+2.66543597000000e-01
+2.66757786300000e-01
+2.66969263600000e-01
+2.67178088400000e-01
+2.67384290700000e-01
+2.67587900200000e-01
+2.67788946600000e-01
+3.67242068100000e-01
+2.68185973200000e-01
+2.68386513000000e-01
+2.68589079400000e-01
+2.68793702100000e-01
+2.69000411000000e-01
+2.69209206100000e-01
+2.69420146900000e-01
+2.69633233500000e-01
+2.69848465900000e-01
+2.70065933500000e-01
+2.70285576600000e-01
+2.70507454900000e-01
+2.70731598100000e-01
+2.70958006400000e-01
+2.71186739200000e-01
+2.71417766800000e-01
+2.71651178600000e-01
+2.71886944800000e-01
+2.72125095100000e-01
+2.72365689300000e-01
+2.72608727200000e-01
+2.72854238700000e-01
+2.73102253700000e-01
+2.73352772000000e-01
+2.73605853300000e-01
+2.73861497600000e-01
+2.74119764600000e-01
+2.74380624300000e-01
+2.74644136400000e-01
+2.74910360600000e-01
+2.75179266900000e-01
+2.75450944900000e-01
+2.75725334900000e-01
+2.76002556100000e-01
+2.76282578700000e-01
+2.76565432500000e-01
+2.76851177200000e-01
+2.77139842500000e-01
+2.77431428400000e-01
+2.77725994600000e-01
+2.78023541000000e-01
+2.78324127200000e-01
+2.78627753300000e-01
+2.78934478800000e-01
+2.79244333500000e-01
+2.79557317500000e-01
+2.79873490300000e-01
+2.80192881800000e-01
+2.80515521800000e-01
+2.80841440000000e-01
+2.81170666200000e-01
+2.81503260100000e-01
+2.81839221700000e-01
+2.82178610600000e-01
+2.82521426700000e-01
+2.82867759500000e-01
+2.83217608900000e-01
+2.83571004900000e-01
+2.83928006900000e-01
+2.84288615000000e-01
+2.84652918600000e-01
+2.85020917700000e-01
+2.85392642000000e-01
+2.85768181100000e-01
+2.86147505000000e-01
+2.86530703300000e-01
+2.86917805700000e-01
+2.87308841900000e-01
+2.87703841900000e-01
+2.88102865200000e-01
+2.88505971400000e-01
+2.88913130800000e-01
+2.89324462400000e-01
+2.89739966400000e-01
+2.90159702300000e-01
+2.90583699900000e-01
+2.91012018900000e-01
+2.91444689000000e-01
+2.91881769900000e-01
+2.92323291300000e-01
+2.92769283100000e-01
+2.93219834600000e-01
+2.93674945800000e-01
+2.94134706300000e-01
+2.94599115800000e-01
+2.95068293800000e-01
+2.95542210300000e-01
+2.96020954800000e-01
+2.96504557100000e-01
+2.96993076800000e-01
+2.97486573500000e-01
+2.97985106700000e-01
+2.98488676500000e-01
+2.98997402200000e-01
+2.99511283600000e-01
+3.00030380500000e-01
+3.00554752300000e-01
+3.01084488600000e-01
+3.01619589300000e-01
+3.02160143900000e-01
+3.02706182000000e-01
+3.03257793200000e-01
+3.03815007200000e-01
+3.04377883700000e-01
+3.04946482200000e-01
+3.05520862300000e-01
+3.06101083800000e-01
+3.06687206000000e-01
+3.07279288800000e-01
+3.07877391600000e-01
+3.08481603900000e-01
+3.09091925600000e-01
+3.09708476100000e-01
+3.10331285000000e-01
+3.10960441800000e-01
+3.11595976400000e-01
+3.12237978000000e-01
+3.12886506300000e-01
+3.13541650800000e-01
+3.14203441100000e-01
+3.14871966800000e-01
+3.15547287500000e-01
+3.16229492400000e-01
+3.16918641300000e-01
+3.17614764000000e-01
+3.18310916400000e-01
+3.19000035500000e-01
+3.19682240500000e-01
+3.20357561100000e-01
+3.21026086800000e-01
+3.21687877200000e-01
+3.22343021600000e-01
+3.22991550000000e-01
+3.23633551600000e-01
+3.24269115900000e-01
+3.24898272800000e-01
+3.25521081700000e-01
+3.26137602300000e-01
+3.26747953900000e-01
+3.27352136400000e-01
+3.27950239200000e-01
+3.28542321900000e-01
+3.29128474000000e-01
+3.29708665600000e-01
+3.30283075600000e-01
+3.30851674100000e-01
+3.31414550500000e-01
+3.31971764600000e-01
+3.32523345900000e-01
+3.33069413900000e-01
+3.33609938600000e-01
+3.34145069100000e-01
+3.34674775600000e-01
+3.35199147500000e-01
+3.35718274100000e-01
+3.36232155600000e-01
+3.36740851400000e-01
+3.37244451000000e-01
+3.37742954500000e-01
+3.38236451100000e-01
+3.38725000600000e-01
+3.39208602900000e-01
+3.39687347400000e-01
+3.40161263900000e-01
+3.40630412100000e-01
+3.41094851500000e-01
+3.41554582100000e-01
+3.42009723200000e-01
+3.42460274700000e-01
+3.42906266500000e-01
+3.43347787900000e-01
+3.43784838900000e-01
+3.44217509000000e-01
+3.44645828000000e-01
+3.45069825600000e-01
+3.45489561600000e-01
+3.45905065500000e-01
+3.46316397200000e-01
+3.46723586300000e-01
+3.47126662700000e-01
+3.47525686000000e-01
+3.47920686000000e-01
+3.48311722300000e-01
+3.48698824600000e-01
+3.49082022900000e-01
+3.49461376700000e-01
+3.49836885900000e-01
+3.50208640100000e-01
+3.50576609400000e-01
+3.50940913000000e-01
+3.51301550900000e-01
+3.51658552900000e-01
+3.52011948800000e-01
+3.52361768500000e-01
+3.52708101300000e-01
+3.53050947200000e-01
+3.53390306200000e-01
+3.53726267800000e-01
+3.54058861700000e-01
+3.54388088000000e-01
+3.54714006200000e-01
+3.55036646100000e-01
+3.55356037600000e-01
+3.55672240300000e-01
+3.55985224200000e-01
+3.56295049200000e-01
+3.56601804500000e-01
+3.56905430600000e-01
+3.57205987000000e-01
+3.57503563200000e-01
+3.57798099500000e-01
+3.58089685400000e-01
+3.58378350700000e-01
+3.58664095400000e-01
+3.58946979000000e-01
+3.59227001700000e-01
+3.59504193100000e-01
+3.59778612900000e-01
+3.60050261000000e-01
+3.60319167400000e-01
+3.60585391500000e-01
+3.60848903700000e-01
+3.61109793200000e-01
+3.61368030300000e-01
+3.61623704400000e-01
+3.61876756000000e-01
+3.62127304100000e-01
+3.62375289200000e-01
+3.62620800700000e-01
+3.62863838700000e-01
+3.63104432800000e-01
+3.63342613000000e-01
+3.63578379200000e-01
+3.63811761100000e-01
+3.64042818500000e-01
+3.64271521600000e-01
+3.64497959600000e-01
+3.64722102900000e-01
+3.64943981200000e-01
+3.65163624300000e-01
+3.65381062000000e-01
+3.65596324200000e-01
+3.65809381000000e-01
+3.66020321800000e-01
+3.66229116900000e-01
+3.66435825800000e-01
+3.66640478400000e-01
+3.66843044800000e-01
+3.67043584600000e-01
+4.26794856800000e-01
+3.67440581300000e-01
+3.67640644300000e-01
+3.67842197400000e-01
+3.68045359800000e-01
+3.68250072000000e-01
+3.68456363700000e-01
+3.68664264700000e-01
+3.68873745200000e-01
+3.69084864900000e-01
+3.69297593800000e-01
+3.69511991700000e-01
+3.69728028800000e-01
+3.69945734700000e-01
+3.70165139400000e-01
+3.70386213100000e-01
+3.70609015200000e-01
+3.70833545900000e-01
+3.71059775400000e-01
+3.71287792900000e-01
+3.71517539000000e-01
+3.71749103100000e-01
+3.71982395600000e-01
+3.72217536000000e-01
+3.72454494200000e-01
+3.72693240600000e-01
+3.72933864600000e-01
+3.73176336300000e-01
+3.73420685500000e-01
+3.73666942100000e-01
+3.73915076300000e-01
+3.74165117700000e-01
+3.74417126200000e-01
+3.74671071800000e-01
+3.74926954500000e-01
+3.75184834000000e-01
+3.75444710300000e-01
+3.75706583300000e-01
+3.75970453000000e-01
+3.76236408900000e-01
+3.76504391400000e-01
+3.76774460100000e-01
+3.77046585100000e-01
+3.77320826100000e-01
+3.77597212800000e-01
+3.77875715500000e-01
+3.78156364000000e-01
+3.78439188000000e-01
+3.78724187600000e-01
+3.79011392600000e-01
+3.79300832700000e-01
+3.79592478300000e-01
+3.79886388800000e-01
+3.80182594100000e-01
+3.80481064300000e-01
+3.80781829400000e-01
+3.81084948800000e-01
+3.81390392800000e-01
+3.81698191200000e-01
+3.82008373700000e-01
+3.82320970300000e-01
+3.82635951000000e-01
+3.82953375600000e-01
+3.83273273700000e-01
+3.83595615600000e-01
+3.83920460900000e-01
+3.84247779800000e-01
+3.84577661800000e-01
+3.84910106700000e-01
+3.85245084800000e-01
+3.85582685500000e-01
+3.85922879000000e-01
+3.86265665300000e-01
+3.86611163600000e-01
+3.86959284500000e-01
+3.87310117500000e-01
+3.87663662400000e-01
+3.88019919400000e-01
+3.88378918200000e-01
+3.88740718400000e-01
+3.89105320000000e-01
+3.89472723000000e-01
+3.89842957300000e-01
+3.90216052500000e-01
+3.90592038600000e-01
+3.90970915600000e-01
+3.91352742900000e-01
+3.91737490900000e-01
+3.92125248900000e-01
+3.92515957400000e-01
+3.92909705600000e-01
+3.93306523600000e-01
+3.93706381300000e-01
+3.94109308700000e-01
+3.94515365400000e-01
+3.94924581100000e-01
+3.95336926000000e-01
+3.95752489600000e-01
+3.96171242000000e-01
+3.96593213100000e-01
+3.97018462400000e-01
+3.97443711800000e-01
+3.97865712600000e-01
+3.98284435300000e-01
+3.98699998900000e-01
+3.99112343800000e-01
+3.99521559500000e-01
+3.99927616100000e-01
+4.00330573300000e-01
+4.00730401300000e-01
+4.01127219200000e-01
+4.01520967500000e-01
+4.01911675900000e-01
+4.02299433900000e-01
+4.02684181900000e-01
+4.03066009300000e-01
+4.03444886200000e-01
+4.03820872300000e-01
+4.04193967600000e-01
+4.04564231600000e-01
+4.04931634700000e-01
+4.05296206500000e-01
+4.05658006700000e-01
+4.06017005400000e-01
+4.06373292200000e-01
+4.06726807400000e-01
+4.07077640300000e-01
+4.07425791000000e-01
+4.07771259500000e-01
+4.08114045900000e-01
+4.08454239400000e-01
+4.08791840100000e-01
+4.09126818200000e-01
+4.09459263100000e-01
+4.09789145000000e-01
+4.10116493700000e-01
+4.10441309200000e-01
+4.10763680900000e-01
+4.11083549300000e-01
+4.11400973800000e-01
+4.11715984300000e-01
+4.12028551100000e-01
+4.12338733700000e-01
+4.12646532100000e-01
+4.12951976100000e-01
+4.13255095500000e-01
+4.13555860500000e-01
+4.13854330800000e-01
+4.14150536100000e-01