TITLE = Boundary data
VARIABLES =  "x0" "x1" "p" "u" "v" "T" "rho" "H" "M" "xc0" "xc1" "xc2" "xc3" "xc4"
ZONE   T= "ZONE0 Wall", N=139, E=138, ZONETYPE=FELINESEG, DATAPACKING=BLOCK, STRANDID=1, SOLUTIONTIME=1.42480000000000e+04, VARLOCATION=( [1-2]=NODAL,[3-6]=NODAL,[7-14]=NODAL)
+1.10000000000000e+00
+1.80137700000000e-02
+1.07163162050000e+00
+1.04521824960000e+00
+1.02062515790000e+00
+9.97726900530000e-01
+9.76406678040000e-01
+9.56555740000000e-01
+9.36704819320000e-01
+9.16323082120000e-01
+8.95396334290000e-01
+8.73910002150000e-01
+8.51849122350000e-01
+8.31320160150000e-01
+8.12216738500000e-01
+7.94439867200000e-01
+7.77897430000000e-01
+7.61354995270000e-01
+7.45234795260000e-01
+7.29526052700000e-01
+7.14218265420000e-01
+6.99301199290000e-01
+6.84823989550000e-01
+6.70773666230000e-01
+6.57137641830000e-01
+6.43903700000000e-01
+6.30669783380000e-01
+6.17647687050000e-01
+6.04834020630000e-01
+5.92225448030000e-01
+5.79818686550000e-01
+5.67610506010000e-01
+5.55597727970000e-01
+5.43777224830000e-01
+5.32145919060000e-01
+5.20700782410000e-01
+5.09438835080000e-01
+4.98357144950000e-01
+4.87452826860000e-01
+4.76723041810000e-01
+4.66164996260000e-01
+4.55775941360000e-01
+4.45553172270000e-01
+4.35494027450000e-01
+4.25595887940000e-01
+4.15856176710000e-01
+4.06272357990000e-01
+3.96841936580000e-01
+3.87562457220000e-01
+3.78431503960000e-01
+3.69446699500000e-01
+3.60605704610000e-01
+3.51906217500000e-01
+3.43345973200000e-01
+3.34922743020000e-01
+3.26634333920000e-01
+3.18478587980000e-01
+3.10453381810000e-01
+3.02556626000000e-01
+2.94786264610000e-01
+2.87140274570000e-01
+2.79616665220000e-01
+2.72213477740000e-01
+2.64928784690000e-01
+2.57797843450000e-01
+2.50817408920000e-01
+2.43984304490000e-01
+2.37295420580000e-01
+2.30747713260000e-01
+2.24338202820000e-01
+2.18063972470000e-01
+2.11922166960000e-01
+2.05909991320000e-01
+2.00024709550000e-01
+1.94263643420000e-01
+1.88624171220000e-01
+1.83103726550000e-01
+1.77699797220000e-01
+1.72409924020000e-01
+1.67231699680000e-01
+1.62162767720000e-01
+1.57200821390000e-01
+1.52343602640000e-01
+1.47588901070000e-01
+1.42934552950000e-01
+1.38378440200000e-01
+1.33918489440000e-01
+1.29552671070000e-01
+1.25278998310000e-01
+1.21095526330000e-01
+1.17000351330000e-01
+1.12991609710000e-01
+1.09067477190000e-01
+1.05226167990000e-01
+1.01465934040000e-01
+9.77850641540000e-02
+9.41818832550000e-02
+9.06547516300000e-02
+8.72020641710000e-02
+8.38222496510000e-02
+8.05137700000000e-02
+7.72052851670000e-02
+7.39068100290000e-02
+7.06183143040000e-02
+6.73397677990000e-02
+6.40711404120000e-02
+6.08124021340000e-02
+5.75635230450000e-02
+5.43244733180000e-02
+5.10952232130000e-02
+4.78757430830000e-02
+4.46660033680000e-02
+4.14659746000000e-02
+3.82756273980000e-02
+3.50949324710000e-02
+3.24262341680000e-02
+3.01871163650000e-02
+2.83084294680000e-02
+2.67321548970000e-02
+2.54096133230000e-02
+2.42999613330000e-02
+2.33689300800000e-02
+2.25877669750000e-02
+2.19323477340000e-02
+2.13824313620000e-02
+2.09210350560000e-02
+2.05339097370000e-02
+2.02091000000000e-02
+1.98878224150000e-02
+1.95871238660000e-02
+1.93102464880000e-02
+1.90595167480000e-02
+1.88363491970000e-02
+1.86413709150000e-02
+1.84694302330000e-02
+1.83181816420000e-02
+1.81921852220000e-02
+1.80962223910000e-02
+1.80351572710000e-02
+1.35063020000000e-01
+0.00000000000000e+00
+1.31579821070000e-01
+1.28336667020000e-01
+1.25317015130000e-01
+1.22505462730000e-01
+1.19887668640000e-01
+1.17450280000000e-01
+1.15012892550000e-01
+1.12510329000000e-01
+1.09940846540000e-01
+1.07302655730000e-01
+1.04593919320000e-01
+1.02073278810000e-01
+9.97276727340000e-02
+9.75449466160000e-02
+9.55137900000000e-02
+9.34826345760000e-02
+9.15033230530000e-02
+8.95745321480000e-02
+8.76949723570000e-02
+8.58633870880000e-02
+8.40858093860000e-02
+8.23606467440000e-02
+8.06863536080000e-02
+7.90614300000000e-02
+7.74365094810000e-02
+7.58375972200000e-02
+7.42642769330000e-02
+7.27161389990000e-02
+7.11927803510000e-02
+6.96938043770000e-02
+6.82188208090000e-02
+6.67674456300000e-02
+6.53393009660000e-02
+6.39340149930000e-02
+6.25512218380000e-02
+6.11905614830000e-02
+5.98516796750000e-02
+5.85342278280000e-02
+5.72378629380000e-02
+5.59622474890000e-02
+5.47070493690000e-02
+5.34719417810000e-02
+5.22566031580000e-02
+5.10607170820000e-02
+4.98839721960000e-02
+4.87260621310000e-02
+4.75866854180000e-02
+4.64655454140000e-02
+4.53623502270000e-02
+4.42768126330000e-02
+4.32086500070000e-02
+4.21575842480000e-02
+4.11233417060000e-02
+4.01056531100000e-02
+3.91042535010000e-02
+3.81188821590000e-02
+3.71492825380000e-02
+3.61952021970000e-02
+3.52563927380000e-02
+3.43326097360000e-02
+3.34236126800000e-02
+3.25291649090000e-02
+3.16535954860000e-02
+3.07965059620000e-02
+2.99575062980000e-02
+2.91362146850000e-02
+2.83322573770000e-02
+2.75452685110000e-02
+2.67748899500000e-02
+2.60207711140000e-02
+2.52825688220000e-02
+2.45599471390000e-02
+2.38525772170000e-02
+2.31601371500000e-02
+2.24823118260000e-02
+2.18187927850000e-02
+2.11692780770000e-02
+2.05334721220000e-02
+1.99110855830000e-02
+1.93018352270000e-02
+1.87054438010000e-02
+1.81216399010000e-02
+1.75501578530000e-02
+1.69907375910000e-02
+1.64431245360000e-02
+1.59070694840000e-02
+1.53823284910000e-02
+1.48686627590000e-02
+1.43658385330000e-02
+1.38736269900000e-02
+1.33918041370000e-02
+1.29201507100000e-02
+1.24584520700000e-02
+1.20064981100000e-02
+1.15640831590000e-02
+1.11310058830000e-02
+1.07070692020000e-02
+1.02920801910000e-02
+9.88585000000000e-03
+9.47961927560000e-03
+9.07461758690000e-03
+8.67084121560000e-03
+8.26828645440000e-03
+7.86694960750000e-03
+7.46682699000000e-03
+7.06791492850000e-03
+6.67020976030000e-03
+6.27370783410000e-03
+5.87840550950000e-03
+5.48429915710000e-03
+5.09138515870000e-03
+4.69965990670000e-03
+4.30911980470000e-03
+3.98144496270000e-03
+3.70651595660000e-03
+3.47584228650000e-03
+3.28230016880000e-03
+3.11991253550000e-03
+2.98366444790000e-03
+2.86934822170000e-03
+2.77343348430000e-03
+2.69295814700000e-03
+2.62543692890000e-03
+2.56878460460000e-03
+2.52125160790000e-03
+2.48137000000000e-03
+2.42037365300000e-03
+2.32192681100000e-03
+2.19124315440000e-03
+2.03350957080000e-03
+1.85371828800000e-03
+1.65654221500000e-03
+1.43898706010000e-03
+1.19557473600000e-03
+9.27496414520000e-04
+6.36763119340000e-04
+3.26314002040000e-04
+1.37476188901875e+04
+3.47840919117074e+05
+1.37403644774980e+04
+1.37343609724514e+04
+1.37358148823689e+04
+1.37371029589571e+04
+1.37381642032119e+04
+1.37390452393128e+04
+1.37397864016962e+04
+1.37403331447357e+04
+1.37405953942847e+04
+1.37406502800900e+04
+1.37405579135084e+04
+1.37404238053104e+04
+1.37403731501665e+04
+1.37405911866981e+04
+1.37411467596574e+04
+1.37419048785324e+04
+1.37428528277246e+04
+1.37439090805159e+04
+1.37448919019046e+04
+1.37457562089874e+04
+1.37463784671554e+04
+1.37466996488430e+04
+1.37468524411943e+04
+1.37468163041739e+04
+1.37466912172425e+04
+1.37465651200463e+04
+1.37463828245821e+04
+1.37463435838021e+04
+1.37463454343361e+04
+1.37464001440158e+04
+1.37465860645960e+04
+1.37478832451611e+04
+1.37491943681866e+04
+1.37494217788186e+04
+1.37495819622281e+04
+1.37495179070995e+04
+1.37491072543926e+04
+1.37486887978751e+04
+1.37482334627744e+04
+1.37477723579116e+04
+1.37475919013088e+04
+1.37475372678876e+04
+1.37474984980519e+04
+1.37473455279273e+04
+1.37469694230817e+04
+1.37463643757682e+04
+1.37455711551292e+04
+1.37445686264481e+04
+1.37433495053783e+04
+1.37418466910402e+04
+1.37402188501804e+04
+1.37386537327943e+04
+1.37369871251462e+04
+1.37352825880227e+04
+1.37334321259807e+04
+1.37312380936774e+04
+1.37285779262555e+04
+1.37254734220255e+04
+1.37219991730525e+04
+1.37180086946928e+04
+1.37136072973061e+04
+1.37089342454728e+04
+1.37038451090754e+04
+1.36982711574862e+04
+1.36922934390223e+04
+1.36858246567816e+04
+1.36789070625701e+04
+1.36712360357241e+04
+1.36627097184751e+04
+1.36536522516127e+04
+1.36436222979420e+04
+1.36323941251080e+04
+1.36204096596299e+04
+1.36074021484422e+04
+1.35932983777395e+04
+1.35779580692690e+04
+1.35610108077464e+04
+1.35425467129013e+04
+1.35223863575569e+04
+1.35001654712511e+04
+1.34756449013210e+04
+1.34489558911776e+04
+1.34200297769616e+04
+1.33887724850543e+04
+1.33556122871548e+04
+1.33205827046695e+04
+1.32839044534515e+04
+1.32456489769355e+04
+1.32059019319553e+04
+1.31644007881243e+04
+1.31204311460901e+04
+1.30732551774453e+04
+1.30221995448842e+04
+1.29669299602605e+04
+1.29074014430064e+04
+1.28438708633261e+04
+1.27768314737196e+04
+1.27077059439330e+04
+1.26362157082616e+04
+1.25612629345241e+04
+1.24842742110596e+04
+1.24066856136317e+04
+1.23312559459579e+04
+1.22606617301645e+04
+1.21987147152350e+04
+1.21496228723143e+04
+1.21187178285883e+04
+1.21136984019380e+04
+1.21451057574368e+04
+1.22264740188360e+04
+1.23767369551925e+04
+1.26230698152480e+04
+1.30297395920643e+04
+1.35733324031684e+04
+1.42467108102259e+04
+1.50382317875978e+04
+1.59350689825525e+04
+1.69216945610320e+04
+1.79786239941463e+04
+1.90940132196050e+04
+2.02902342485461e+04
+2.21098598259072e+04
+2.39577090578303e+04
+2.55135088475822e+04
+2.73980920179601e+04
+3.21385338753716e+04
+4.43716175628653e+04
+6.36004206688597e+04
+8.78536840997317e+04
+1.16656247175228e+05
+1.49008607542438e+05
+1.83780914947887e+05
+2.21741582246330e+05
+2.67634899686604e+05
+3.07973778524222e+05
+3.35289393812337e+05
+3.48163397259416e+05
+0.00000000000000e+00
+0.00000000000000e+00
+0.00000000000000e+00
+0.00000000000000e+00
+0.00000000000000e+00
+0.00000000000000e+00
+0.00000000000000e+00
+0.00000000000000e+00
+0.00000000000000e+00
+0.00000000000000e+00
+0.00000000000000e+00
+0.00000000000000e+00
+0.00000000000000e+00
+0.00000000000000e+00
+0.00000000000000e+00
+0.00000000000000e+00
+0.00000000000000e+00
+0.00000000000000e+00
+0.00000000000000e+00
+0.00000000000000e+00
+0.00000000000000e+00
+0.00000000000000e+00
+0.00000000000000e+00
+0.00000000000000e+00
+0.00000000000000e+00
+0.00000000000000e+00
+0.00000000000000e+00
+0.00000000000000e+00
+0.00000000000000e+00
+0.00000000000000e+00
+0.00000000000000e+00
+0.00000000000000e+00
+0.00000000000000e+00
+0.00000000000000e+00
+0.00000000000000e+00
+0.00000000000000e+00
+0.00000000000000e+00
+0.00000000000000e+00
+0.00000000000000e+00
+0.00000000000000e+00
+0.00000000000000e+00
+0.00000000000000e+00
+0.00000000000000e+00
+0.00000000000000e+00
+0.00000000000000e+00
+0.00000000000000e+00
+0.00000000000000e+00
+0.00000000000000e+00
+0.00000000000000e+00
+0.00000000000000e+00
+0.00000000000000e+00
+0.00000000000000e+00
+0.00000000000000e+00
+0.00000000000000e+00
+0.00000000000000e+00
+0.00000000000000e+00
+0.00000000000000e+00
+0.00000000000000e+00
+0.00000000000000e+00
+0.00000000000000e+00
+0.00000000000000e+00
+0.00000000000000e+00
+0.00000000000000e+00
+0.00000000000000e+00
+0.00000000000000e+00
+0.00000000000000e+00
+0.00000000000000e+00
+0.00000000000000e+00
+0.00000000000000e+00
+0.00000000000000e+00
+0.00000000000000e+00
+0.00000000000000e+00
+0.00000000000000e+00
+0.00000000000000e+00
+0.00000000000000e+00
+0.00000000000000e+00
+0.00000000000000e+00
+0.00000000000000e+00
+0.00000000000000e+00
+0.00000000000000e+00
+0.00000000000000e+00
+0.00000000000000e+00
+0.00000000000000e+00
+0.00000000000000e+00
+0.00000000000000e+00
+0.00000000000000e+00
+0.00000000000000e+00
+0.00000000000000e+00
+0.00000000000000e+00
+0.00000000000000e+00
+0.00000000000000e+00
+0.00000000000000e+00
+0.00000000000000e+00
+0.00000000000000e+00
+0.00000000000000e+00
+0.00000000000000e+00
+0.00000000000000e+00
+0.00000000000000e+00
+0.00000000000000e+00
+0.00000000000000e+00
+0.00000000000000e+00
+0.00000000000000e+00
+0.00000000000000e+00
+0.00000000000000e+00
+0.00000000000000e+00
+0.00000000000000e+00
+0.00000000000000e+00
+0.00000000000000e+00
+0.00000000000000e+00
+0.00000000000000e+00
+0.00000000000000e+00
+0.00000000000000e+00
+0.00000000000000e+00
+0.00000000000000e+00
+0.00000000000000e+00
+0.00000000000000e+00
+0.00000000000000e+00
+0.00000000000000e+00
+0.00000000000000e+00
+0.00000000000000e+00
+0.00000000000000e+00
+0.00000000000000e+00
+0.00000000000000e+00
+0.00000000000000e+00
+0.00000000000000e+00
+0.00000000000000e+00
+0.00000000000000e+00
+0.00000000000000e+00
+0.00000000000000e+00
+0.00000000000000e+00
+0.00000000000000e+00
+0.00000000000000e+00
+0.00000000000000e+00
+0.00000000000000e+00
+0.00000000000000e+00
+0.00000000000000e+00
+0.00000000000000e+00
+0.00000000000000e+00
+0.00000000000000e+00
+0.00000000000000e+00
+0.00000000000000e+00
+0.00000000000000e+00
+0.00000000000000e+00
+0.00000000000000e+00
+0.00000000000000e+00
+0.00000000000000e+00
+0.00000000000000e+00
+0.00000000000000e+00
+0.00000000000000e+00
+0.00000000000000e+00
+0.00000000000000e+00
+0.00000000000000e+00
+0.00000000000000e+00
+0.00000000000000e+00
+0.00000000000000e+00
+0.00000000000000e+00
+0.00000000000000e+00
+0.00000000000000e+00
+0.00000000000000e+00
+0.00000000000000e+00
+0.00000000000000e+00
+0.00000000000000e+00
+0.00000000000000e+00
+0.00000000000000e+00
+0.00000000000000e+00
+0.00000000000000e+00
+0.00000000000000e+00
+0.00000000000000e+00
+0.00000000000000e+00
+0.00000000000000e+00
+0.00000000000000e+00
+0.00000000000000e+00
+0.00000000000000e+00
+0.00000000000000e+00
+0.00000000000000e+00
+0.00000000000000e+00
+0.00000000000000e+00
+0.00000000000000e+00
+0.00000000000000e+00
+0.00000000000000e+00
+0.00000000000000e+00
+0.00000000000000e+00
+0.00000000000000e+00
+0.00000000000000e+00
+0.00000000000000e+00
+0.00000000000000e+00
+0.00000000000000e+00
+0.00000000000000e+00
+0.00000000000000e+00
+0.00000000000000e+00
+0.00000000000000e+00
+0.00000000000000e+00
+0.00000000000000e+00
+0.00000000000000e+00
+0.00000000000000e+00
+0.00000000000000e+00
+0.00000000000000e+00
+0.00000000000000e+00
+0.00000000000000e+00
+0.00000000000000e+00
+0.00000000000000e+00
+0.00000000000000e+00
+0.00000000000000e+00
+0.00000000000000e+00
+0.00000000000000e+00
+0.00000000000000e+00
+0.00000000000000e+00
+0.00000000000000e+00
+0.00000000000000e+00
+0.00000000000000e+00
+0.00000000000000e+00
+0.00000000000000e+00
+0.00000000000000e+00
+0.00000000000000e+00
+0.00000000000000e+00
+0.00000000000000e+00
+0.00000000000000e+00
+0.00000000000000e+00
+0.00000000000000e+00
+0.00000000000000e+00
+0.00000000000000e+00
+0.00000000000000e+00
+0.00000000000000e+00
+0.00000000000000e+00
+0.00000000000000e+00
+0.00000000000000e+00
+0.00000000000000e+00
+0.00000000000000e+00
+0.00000000000000e+00
+0.00000000000000e+00
+0.00000000000000e+00
+0.00000000000000e+00
+0.00000000000000e+00
+0.00000000000000e+00
+0.00000000000000e+00
+0.00000000000000e+00
+0.00000000000000e+00
+0.00000000000000e+00
+0.00000000000000e+00
+0.00000000000000e+00
+0.00000000000000e+00
+0.00000000000000e+00
+0.00000000000000e+00
+0.00000000000000e+00
+0.00000000000000e+00
+0.00000000000000e+00
+0.00000000000000e+00
+0.00000000000000e+00
+0.00000000000000e+00
+0.00000000000000e+00
+0.00000000000000e+00
+0.00000000000000e+00
+0.00000000000000e+00
+0.00000000000000e+00
+0.00000000000000e+00
+0.00000000000000e+00
+0.00000000000000e+00
+0.00000000000000e+00
+0.00000000000000e+00
+0.00000000000000e+00
+0.00000000000000e+00
+0.00000000000000e+00
+0.00000000000000e+00
+0.00000000000000e+00
+0.00000000000000e+00
+0.00000000000000e+00
+0.00000000000000e+00
+0.00000000000000e+00
+0.00000000000000e+00
+0.00000000000000e+00
+0.00000000000000e+00
+0.00000000000000e+00
+0.00000000000000e+00
+0.00000000000000e+00
+0.00000000000000e+00
+0.00000000000000e+00
+0.00000000000000e+00
+0.00000000000000e+00
+2.93000000000000e+02
+2.93000000000000e+02
+2.93000000000000e+02
+2.93000000000000e+02
+2.93000000000000e+02
+2.93000000000000e+02
+2.93000000000000e+02
+2.93000000000000e+02
+2.93000000000000e+02
+2.93000000000000e+02
+2.93000000000000e+02
+2.93000000000000e+02
+2.93000000000000e+02
+2.93000000000000e+02
+2.93000000000000e+02
+2.93000000000000e+02
+2.93000000000000e+02
+2.93000000000000e+02
+2.93000000000000e+02
+2.93000000000000e+02
+2.93000000000000e+02
+2.93000000000000e+02
+2.93000000000000e+02
+2.93000000000000e+02
+2.93000000000000e+02
+2.93000000000000e+02
+2.93000000000000e+02
+2.93000000000000e+02
+2.93000000000000e+02
+2.93000000000000e+02
+2.93000000000000e+02
+2.93000000000000e+02
+2.93000000000000e+02
+2.93000000000000e+02
+2.93000000000000e+02
+2.93000000000000e+02
+2.93000000000000e+02
+2.93000000000000e+02
+2.93000000000000e+02
+2.93000000000000e+02
+2.93000000000000e+02
+2.93000000000000e+02
+2.93000000000000e+02
+2.93000000000000e+02
+2.93000000000000e+02
+2.93000000000000e+02
+2.93000000000000e+02
+2.93000000000000e+02
+2.93000000000000e+02
+2.93000000000000e+02
+2.93000000000000e+02
+2.93000000000000e+02
+2.93000000000000e+02
+2.93000000000000e+02
+2.93000000000000e+02
+2.93000000000000e+02
+2.93000000000000e+02
+2.93000000000000e+02
+2.93000000000000e+02
+2.93000000000000e+02
+2.93000000000000e+02
+2.93000000000000e+02
+2.93000000000000e+02
+2.93000000000000e+02
+2.93000000000000e+02
+2.93000000000000e+02
+2.93000000000000e+02
+2.93000000000000e+02
+2.93000000000000e+02
+2.93000000000000e+02
+2.93000000000000e+02
+2.93000000000000e+02
+2.93000000000000e+02
+2.93000000000000e+02
+2.93000000000000e+02
+2.93000000000000e+02
+2.93000000000000e+02
+2.93000000000000e+02
+2.93000000000000e+02
+2.93000000000000e+02
+2.93000000000000e+02
+2.93000000000000e+02
+2.93000000000000e+02
+2.93000000000000e+02
+2.93000000000000e+02
+2.93000000000000e+02
+2.93000000000000e+02
+2.93000000000000e+02
+2.93000000000000e+02
+2.93000000000000e+02
+2.93000000000000e+02
+2.93000000000000e+02
+2.93000000000000e+02
+2.93000000000000e+02
+2.93000000000000e+02
+2.93000000000000e+02
+2.93000000000000e+02
+2.93000000000000e+02
+2.93000000000000e+02
+2.93000000000000e+02
+2.93000000000000e+02
+2.93000000000000e+02
+2.93000000000000e+02
+2.93000000000000e+02
+2.93000000000000e+02
+2.93000000000000e+02
+2.93000000000000e+02
+2.93000000000000e+02
+2.93000000000000e+02
+2.93000000000000e+02
+2.93000000000000e+02
+2.93000000000000e+02
+2.93000000000000e+02
+2.93000000000000e+02
+2.93000000000000e+02
+2.93000000000000e+02
+2.93000000000000e+02
+2.93000000000000e+02
+2.93000000000000e+02
+2.93000000000000e+02
+2.93000000000000e+02
+2.93000000000000e+02
+2.93000000000000e+02
+2.93000000000000e+02
+2.93000000000000e+02
+2.93000000000000e+02
+2.93000000000000e+02
+2.93000000000000e+02
+2.93000000000000e+02
+2.93000000000000e+02
+2.93000000000000e+02
+2.93000000000000e+02
+2.93000000000000e+02
+2.93000000000000e+02
+2.93000000000000e+02
+2.93000000000000e+02
+2.93000000000000e+02
+2.93000000000000e+02
+2.93000000000000e+02
+1.62807341936695e-01
+4.11933556717147e+00
+1.62721430939545e-01
+1.62650333922182e-01
+1.62667551973611e-01
+1.62682806129782e-01
+1.62695374004821e-01
+1.62705807749520e-01
+1.62714585027865e-01
+1.62721059878652e-01
+1.62724165591164e-01
+1.62724815580966e-01
+1.62723721721894e-01
+1.62722133534192e-01
+1.62721533646357e-01
+1.62724115762464e-01
+1.62730695182324e-01
+1.62739673269357e-01
+1.62750899438013e-01
+1.62763408201221e-01
+1.62775047346819e-01
+1.62785282976705e-01
+1.62792652121801e-01
+1.62796455743159e-01
+1.62798265199530e-01
+1.62797837243803e-01
+1.62796355891216e-01
+1.62794862574482e-01
+1.62792703724996e-01
+1.62792239012732e-01
+1.62792260927839e-01
+1.62792908831858e-01
+1.62795110612086e-01
+1.62810472582877e-01
+1.62825999668435e-01
+1.62828692798120e-01
+1.62830589783723e-01
+1.62829831205433e-01
+1.62824968015946e-01
+1.62820012409169e-01
+1.62814620064646e-01
+1.62809159391225e-01
+1.62807022318612e-01
+1.62806375317690e-01
+1.62805916182626e-01
+1.62804104620959e-01
+1.62799650567447e-01
+1.62792485243353e-01
+1.62783091460703e-01
+1.62771218929825e-01
+1.62756781385225e-01
+1.62738984179050e-01
+1.62719706335693e-01
+1.62701171300391e-01
+1.62681434358059e-01
+1.62661248232700e-01
+1.62639333979125e-01
+1.62613350965610e-01
+1.62581847707444e-01
+1.62545082352967e-01
+1.62503938265032e-01
+1.62456680686829e-01
+1.62404556765220e-01
+1.62349215752803e-01
+1.62288947223669e-01
+1.62222937229532e-01
+1.62152145591960e-01
+1.62075538489990e-01
+1.61993616294214e-01
+1.61902771508604e-01
+1.61801797873904e-01
+1.61694534054887e-01
+1.61575753478416e-01
+1.61442782889945e-01
+1.61300855841734e-01
+1.61146813287994e-01
+1.60979788188030e-01
+1.60798119284745e-01
+1.60597419903737e-01
+1.60378757295542e-01
+1.60140006578611e-01
+1.59876853849122e-01
+1.59586466921395e-01
+1.59270400056647e-01
+1.58927840097306e-01
+1.58557672968567e-01
+1.58164970514329e-01
+1.57750129714686e-01
+1.57315764415839e-01
+1.56862720692714e-01
+1.56392012943631e-01
+1.55900532130231e-01
+1.55379817917634e-01
+1.54821132510386e-01
+1.54216501854375e-01
+1.53561967113893e-01
+1.52856995602754e-01
+1.52104629328125e-01
+1.51310709674541e-01
+1.50492084729056e-01
+1.49645455553701e-01
+1.48757820977819e-01
+1.47846075494731e-01
+1.46927225953385e-01
+1.46033943720641e-01
+1.45197925736638e-01
+1.44464312961790e-01
+1.43882938651042e-01
+1.43516943051248e-01
+1.43457500065701e-01
+1.43829444335242e-01
+1.44793054867526e-01
+1.46572556427412e-01
+1.49489774201461e-01
+1.54305795502189e-01
+1.60743339441884e-01
+1.68717880302109e-01
+1.78091534564886e-01
+1.88712405060849e-01
+2.00396602099047e-01
+2.12913378494618e-01
+2.26122469936000e-01
+2.40288818861317e-01
+2.61837888990227e-01
+2.83721200140488e-01
+3.02145891018118e-01
+3.24464226948047e-01
+3.80603311437906e-01
+5.25474641866738e-01
+7.53193372456913e-01
+1.04041470031094e+00
+1.38151149479893e+00
+1.76464706459008e+00
+2.17644106229302e+00
+2.62599348226984e+00
+3.16948898391202e+00
+3.64720557561551e+00
+3.97069306489975e+00
+4.12315454190497e+00
+2.95609539551299e+05
+2.95609539551299e+05
+2.95609539551299e+05
+2.95609539551299e+05
+2.95609539551299e+05
+2.95609539551299e+05
+2.95609539551299e+05
+2.95609539551299e+05
+2.95609539551299e+05
+2.95609539551299e+05
+2.95609539551299e+05
+2.95609539551299e+05
+2.95609539551299e+05
+2.95609539551299e+05
+2.95609539551299e+05
+2.95609539551299e+05
+2.95609539551299e+05
+2.95609539551299e+05
+2.95609539551299e+05
+2.95609539551299e+05
+2.95609539551299e+05
+2.95609539551299e+05
+2.95609539551299e+05
+2.95609539551299e+05
+2.95609539551299e+05
+2.95609539551299e+05
+2.95609539551299e+05
+2.95609539551299e+05
+2.95609539551299e+05
+2.95609539551299e+05
+2.95609539551299e+05
+2.95609539551299e+05
+2.95609539551299e+05
+2.95609539551299e+05
+2.95609539551299e+05
+2.95609539551299e+05
+2.95609539551299e+05
+2.95609539551299e+05
+2.95609539551299e+05
+2.95609539551299e+05
+2.95609539551299e+05
+2.95609539551299e+05
+2.95609539551299e+05
+2.95609539551299e+05
+2.95609539551299e+05
+2.95609539551299e+05
+2.95609539551299e+05
+2.95609539551299e+05
+2.95609539551299e+05
+2.95609539551299e+05
+2.95609539551299e+05
+2.95609539551299e+05
+2.95609539551299e+05
+2.95609539551299e+05
+2.95609539551299e+05
+2.95609539551299e+05
+2.95609539551299e+05
+2.95609539551299e+05
+2.95609539551299e+05
+2.95609539551299e+05
+2.95609539551299e+05
+2.95609539551299e+05
+2.95609539551299e+05
+2.95609539551299e+05
+2.95609539551299e+05
+2.95609539551299e+05
+2.95609539551299e+05
+2.95609539551299e+05
+2.95609539551299e+05
+2.95609539551299e+05
+2.95609539551299e+05
+2.95609539551299e+05
+2.95609539551299e+05
+2.95609539551299e+05
+2.95609539551299e+05
+2.95609539551299e+05
+2.95609539551299e+05
+2.95609539551299e+05
+2.95609539551299e+05
+2.95609539551299e+05
+2.95609539551299e+05
+2.95609539551299e+05
+2.95609539551299e+05
+2.95609539551299e+05
+2.95609539551299e+05
+2.95609539551299e+05
+2.95609539551299e+05
+2.95609539551299e+05
+2.95609539551299e+05
+2.95609539551299e+05
+2.95609539551299e+05
+2.95609539551299e+05
+2.95609539551299e+05
+2.95609539551299e+05
+2.95609539551299e+05
+2.95609539551299e+05
+2.95609539551299e+05
+2.95609539551299e+05
+2.95609539551299e+05
+2.95609539551299e+05
+2.95609539551299e+05
+2.95609539551299e+05
+2.95609539551299e+05
+2.95609539551299e+05
+2.95609539551299e+05
+2.95609539551299e+05
+2.95609539551299e+05
+2.95609539551299e+05
+2.95609539551299e+05
+2.95609539551299e+05
+2.95609539551299e+05
+2.95609539551299e+05
+2.95609539551299e+05
+2.95609539551299e+05
+2.95609539551299e+05
+2.95609539551299e+05
+2.95609539551299e+05
+2.95609539551299e+05
+2.95609539551299e+05
+2.95609539551299e+05
+2.95609539551299e+05
+2.95609539551299e+05
+2.95609539551299e+05
+2.95609539551299e+05
+2.95609539551299e+05
+2.95609539551299e+05
+2.95609539551299e+05
+2.95609539551299e+05
+2.95609539551299e+05
+2.95609539551299e+05
+2.95609539551299e+05
+2.95609539551299e+05
+2.95609539551299e+05
+2.95609539551299e+05
+2.95609539551299e+05
+2.95609539551299e+05
+2.95609539551299e+05
+2.95609539551299e+05
+2.95609539551299e+05
+0.00000000000000e+00
+0.00000000000000e+00
+0.00000000000000e+00
+0.00000000000000e+00
+0.00000000000000e+00
+0.00000000000000e+00
+0.00000000000000e+00
+0.00000000000000e+00
+0.00000000000000e+00
+0.00000000000000e+00
+0.00000000000000e+00
+0.00000000000000e+00
+0.00000000000000e+00
+0.00000000000000e+00
+0.00000000000000e+00
+0.00000000000000e+00
+0.00000000000000e+00
+0.00000000000000e+00
+0.00000000000000e+00
+0.00000000000000e+00
+0.00000000000000e+00
+0.00000000000000e+00
+0.00000000000000e+00
+0.00000000000000e+00
+0.00000000000000e+00
+0.00000000000000e+00
+0.00000000000000e+00
+0.00000000000000e+00
+0.00000000000000e+00
+0.00000000000000e+00
+0.00000000000000e+00
+0.00000000000000e+00
+0.00000000000000e+00
+0.00000000000000e+00
+0.00000000000000e+00
+0.00000000000000e+00
+0.00000000000000e+00
+0.00000000000000e+00
+0.00000000000000e+00
+0.00000000000000e+00
+0.00000000000000e+00
+0.00000000000000e+00
+0.00000000000000e+00
+0.00000000000000e+00
+0.00000000000000e+00
+0.00000000000000e+00
+0.00000000000000e+00
+0.00000000000000e+00
+0.00000000000000e+00
+0.00000000000000e+00
+0.00000000000000e+00
+0.00000000000000e+00
+0.00000000000000e+00
+0.00000000000000e+00
+0.00000000000000e+00
+0.00000000000000e+00
+0.00000000000000e+00
+0.00000000000000e+00
+0.00000000000000e+00
+0.00000000000000e+00
+0.00000000000000e+00
+0.00000000000000e+00
+0.00000000000000e+00
+0.00000000000000e+00
+0.00000000000000e+00
+0.00000000000000e+00
+0.00000000000000e+00
+0.00000000000000e+00
+0.00000000000000e+00
+0.00000000000000e+00
+0.00000000000000e+00
+0.00000000000000e+00
+0.00000000000000e+00
+0.00000000000000e+00
+0.00000000000000e+00
+0.00000000000000e+00
+0.00000000000000e+00
+0.00000000000000e+00
+0.00000000000000e+00
+0.00000000000000e+00
+0.00000000000000e+00
+0.00000000000000e+00
+0.00000000000000e+00
+0.00000000000000e+00
+0.00000000000000e+00
+0.00000000000000e+00
+0.00000000000000e+00
+0.00000000000000e+00
+0.00000000000000e+00
+0.00000000000000e+00
+0.00000000000000e+00
+0.00000000000000e+00
+0.00000000000000e+00
+0.00000000000000e+00
+0.00000000000000e+00
+0.00000000000000e+00
+0.00000000000000e+00
+0.00000000000000e+00
+0.00000000000000e+00
+0.00000000000000e+00
+0.00000000000000e+00
+0.00000000000000e+00
+0.00000000000000e+00
+0.00000000000000e+00
+0.00000000000000e+00
+0.00000000000000e+00
+0.00000000000000e+00
+0.00000000000000e+00
+0.00000000000000e+00
+0.00000000000000e+00
+0.00000000000000e+00
+0.00000000000000e+00
+0.00000000000000e+00
+0.00000000000000e+00
+0.00000000000000e+00
+0.00000000000000e+00
+0.00000000000000e+00
+0.00000000000000e+00
+0.00000000000000e+00
+0.00000000000000e+00
+0.00000000000000e+00
+0.00000000000000e+00
+0.00000000000000e+00
+0.00000000000000e+00
+0.00000000000000e+00
+0.00000000000000e+00
+0.00000000000000e+00
+0.00000000000000e+00
+0.00000000000000e+00
+0.00000000000000e+00
+0.00000000000000e+00
+0.00000000000000e+00
+0.00000000000000e+00
+0.00000000000000e+00
+0.00000000000000e+00
+0.00000000000000e+00
+0.00000000000000e+00
+0.00000000000000e+00
+0.00000000000000e+00
+0.00000000000000e+00
+0.00000000000000e+00
+0.00000000000000e+00
+0.00000000000000e+00
+0.00000000000000e+00
+0.00000000000000e+00
+0.00000000000000e+00
+0.00000000000000e+00
+0.00000000000000e+00
+0.00000000000000e+00
+0.00000000000000e+00
+0.00000000000000e+00
+0.00000000000000e+00
+0.00000000000000e+00
+0.00000000000000e+00
+0.00000000000000e+00
+0.00000000000000e+00
+0.00000000000000e+00
+0.00000000000000e+00
+0.00000000000000e+00
+0.00000000000000e+00
+0.00000000000000e+00
+0.00000000000000e+00
+0.00000000000000e+00
+0.00000000000000e+00
+0.00000000000000e+00
+0.00000000000000e+00
+0.00000000000000e+00
+0.00000000000000e+00
+0.00000000000000e+00
+0.00000000000000e+00
+0.00000000000000e+00
+0.00000000000000e+00
+0.00000000000000e+00
+0.00000000000000e+00
+0.00000000000000e+00
+0.00000000000000e+00
+0.00000000000000e+00
+0.00000000000000e+00
+0.00000000000000e+00
+0.00000000000000e+00
+0.00000000000000e+00
+0.00000000000000e+00
+0.00000000000000e+00
+0.00000000000000e+00
+0.00000000000000e+00
+0.00000000000000e+00
+0.00000000000000e+00
+0.00000000000000e+00
+0.00000000000000e+00
+0.00000000000000e+00
+0.00000000000000e+00
+0.00000000000000e+00
+0.00000000000000e+00
+0.00000000000000e+00
+0.00000000000000e+00
+0.00000000000000e+00
+0.00000000000000e+00
+0.00000000000000e+00
+0.00000000000000e+00
+0.00000000000000e+00
+0.00000000000000e+00
+0.00000000000000e+00
+0.00000000000000e+00
+0.00000000000000e+00
+0.00000000000000e+00
+0.00000000000000e+00
+0.00000000000000e+00
+0.00000000000000e+00
+0.00000000000000e+00
+0.00000000000000e+00
+0.00000000000000e+00
+0.00000000000000e+00
+0.00000000000000e+00
+0.00000000000000e+00
+0.00000000000000e+00
+0.00000000000000e+00
+0.00000000000000e+00
+0.00000000000000e+00
+0.00000000000000e+00
+0.00000000000000e+00
+0.00000000000000e+00
+0.00000000000000e+00
+0.00000000000000e+00
+0.00000000000000e+00
+0.00000000000000e+00
+0.00000000000000e+00
+0.00000000000000e+00
+0.00000000000000e+00
+0.00000000000000e+00
+0.00000000000000e+00
+0.00000000000000e+00
+0.00000000000000e+00
+0.00000000000000e+00
+0.00000000000000e+00
+0.00000000000000e+00
+0.00000000000000e+00
+0.00000000000000e+00
+0.00000000000000e+00