TITLE = Boundary data
VARIABLES =  "x0" "x1" "p" "u" "v" "T" "rho" "H" "M" "xc0" "xc1" "xc2" "xc3" "xc4"
ZONE   T= "ZONE0 Wall", N=139, E=138, ZONETYPE=FELINESEG, DATAPACKING=BLOCK, STRANDID=1, SOLUTIONTIME=5.90000000000000e+01, VARLOCATION=( [1-2]=NODAL,[3-6]=NODAL,[7-14]=NODAL)
+1.10000000000000e+00
+1.80137700000000e-02
+1.07163162050000e+00
+1.04521824960000e+00
+1.02062515790000e+00
+9.97726900530000e-01
+9.76406678040000e-01
+9.56555740000000e-01
+9.36704819320000e-01
+9.16323082120000e-01
+8.95396334290000e-01
+8.73910002150000e-01
+8.51849122350000e-01
+8.31320160150000e-01
+8.12216738500000e-01
+7.94439867200000e-01
+7.77897430000000e-01
+7.61354995270000e-01
+7.45234795260000e-01
+7.29526052700000e-01
+7.14218265420000e-01
+6.99301199290000e-01
+6.84823989550000e-01
+6.70773666230000e-01
+6.57137641830000e-01
+6.43903700000000e-01
+6.30669783380000e-01
+6.17647687050000e-01
+6.04834020630000e-01
+5.92225448030000e-01
+5.79818686550000e-01
+5.67610506010000e-01
+5.55597727970000e-01
+5.43777224830000e-01
+5.32145919060000e-01
+5.20700782410000e-01
+5.09438835080000e-01
+4.98357144950000e-01
+4.87452826860000e-01
+4.76723041810000e-01
+4.66164996260000e-01
+4.55775941360000e-01
+4.45553172270000e-01
+4.35494027450000e-01
+4.25595887940000e-01
+4.15856176710000e-01
+4.06272357990000e-01
+3.96841936580000e-01
+3.87562457220000e-01
+3.78431503960000e-01
+3.69446699500000e-01
+3.60605704610000e-01
+3.51906217500000e-01
+3.43345973200000e-01
+3.34922743020000e-01
+3.26634333920000e-01
+3.18478587980000e-01
+3.10453381810000e-01
+3.02556626000000e-01
+2.94786264610000e-01
+2.87140274570000e-01
+2.79616665220000e-01
+2.72213477740000e-01
+2.64928784690000e-01
+2.57797843450000e-01
+2.50817408920000e-01
+2.43984304490000e-01
+2.37295420580000e-01
+2.30747713260000e-01
+2.24338202820000e-01
+2.18063972470000e-01
+2.11922166960000e-01
+2.05909991320000e-01
+2.00024709550000e-01
+1.94263643420000e-01
+1.88624171220000e-01
+1.83103726550000e-01
+1.77699797220000e-01
+1.72409924020000e-01
+1.67231699680000e-01
+1.62162767720000e-01
+1.57200821390000e-01
+1.52343602640000e-01
+1.47588901070000e-01
+1.42934552950000e-01
+1.38378440200000e-01
+1.33918489440000e-01
+1.29552671070000e-01
+1.25278998310000e-01
+1.21095526330000e-01
+1.17000351330000e-01
+1.12991609710000e-01
+1.09067477190000e-01
+1.05226167990000e-01
+1.01465934040000e-01
+9.77850641540000e-02
+9.41818832550000e-02
+9.06547516300000e-02
+8.72020641710000e-02
+8.38222496510000e-02
+8.05137700000000e-02
+7.72052851670000e-02
+7.39068100290000e-02
+7.06183143040000e-02
+6.73397677990000e-02
+6.40711404120000e-02
+6.08124021340000e-02
+5.75635230450000e-02
+5.43244733180000e-02
+5.10952232130000e-02
+4.78757430830000e-02
+4.46660033680000e-02
+4.14659746000000e-02
+3.82756273980000e-02
+3.50949324710000e-02
+3.24262341680000e-02
+3.01871163650000e-02
+2.83084294680000e-02
+2.67321548970000e-02
+2.54096133230000e-02
+2.42999613330000e-02
+2.33689300800000e-02
+2.25877669750000e-02
+2.19323477340000e-02
+2.13824313620000e-02
+2.09210350560000e-02
+2.05339097370000e-02
+2.02091000000000e-02
+1.98878224150000e-02
+1.95871238660000e-02
+1.93102464880000e-02
+1.90595167480000e-02
+1.88363491970000e-02
+1.86413709150000e-02
+1.84694302330000e-02
+1.83181816420000e-02
+1.81921852220000e-02
+1.80962223910000e-02
+1.80351572710000e-02
+1.35063020000000e-01
+0.00000000000000e+00
+1.31579821070000e-01
+1.28336667020000e-01
+1.25317015130000e-01
+1.22505462730000e-01
+1.19887668640000e-01
+1.17450280000000e-01
+1.15012892550000e-01
+1.12510329000000e-01
+1.09940846540000e-01
+1.07302655730000e-01
+1.04593919320000e-01
+1.02073278810000e-01
+9.97276727340000e-02
+9.75449466160000e-02
+9.55137900000000e-02
+9.34826345760000e-02
+9.15033230530000e-02
+8.95745321480000e-02
+8.76949723570000e-02
+8.58633870880000e-02
+8.40858093860000e-02
+8.23606467440000e-02
+8.06863536080000e-02
+7.90614300000000e-02
+7.74365094810000e-02
+7.58375972200000e-02
+7.42642769330000e-02
+7.27161389990000e-02
+7.11927803510000e-02
+6.96938043770000e-02
+6.82188208090000e-02
+6.67674456300000e-02
+6.53393009660000e-02
+6.39340149930000e-02
+6.25512218380000e-02
+6.11905614830000e-02
+5.98516796750000e-02
+5.85342278280000e-02
+5.72378629380000e-02
+5.59622474890000e-02
+5.47070493690000e-02
+5.34719417810000e-02
+5.22566031580000e-02
+5.10607170820000e-02
+4.98839721960000e-02
+4.87260621310000e-02
+4.75866854180000e-02
+4.64655454140000e-02
+4.53623502270000e-02
+4.42768126330000e-02
+4.32086500070000e-02
+4.21575842480000e-02
+4.11233417060000e-02
+4.01056531100000e-02
+3.91042535010000e-02
+3.81188821590000e-02
+3.71492825380000e-02
+3.61952021970000e-02
+3.52563927380000e-02
+3.43326097360000e-02
+3.34236126800000e-02
+3.25291649090000e-02
+3.16535954860000e-02
+3.07965059620000e-02
+2.99575062980000e-02
+2.91362146850000e-02
+2.83322573770000e-02
+2.75452685110000e-02
+2.67748899500000e-02
+2.60207711140000e-02
+2.52825688220000e-02
+2.45599471390000e-02
+2.38525772170000e-02
+2.31601371500000e-02
+2.24823118260000e-02
+2.18187927850000e-02
+2.11692780770000e-02
+2.05334721220000e-02
+1.99110855830000e-02
+1.93018352270000e-02
+1.87054438010000e-02
+1.81216399010000e-02
+1.75501578530000e-02
+1.69907375910000e-02
+1.64431245360000e-02
+1.59070694840000e-02
+1.53823284910000e-02
+1.48686627590000e-02
+1.43658385330000e-02
+1.38736269900000e-02
+1.33918041370000e-02
+1.29201507100000e-02
+1.24584520700000e-02
+1.20064981100000e-02
+1.15640831590000e-02
+1.11310058830000e-02
+1.07070692020000e-02
+1.02920801910000e-02
+9.88585000000000e-03
+9.47961927560000e-03
+9.07461758690000e-03
+8.67084121560000e-03
+8.26828645440000e-03
+7.86694960750000e-03
+7.46682699000000e-03
+7.06791492850000e-03
+6.67020976030000e-03
+6.27370783410000e-03
+5.87840550950000e-03
+5.48429915710000e-03
+5.09138515870000e-03
+4.69965990670000e-03
+4.30911980470000e-03
+3.98144496270000e-03
+3.70651595660000e-03
+3.47584228650000e-03
+3.28230016880000e-03
+3.11991253550000e-03
+2.98366444790000e-03
+2.86934822170000e-03
+2.77343348430000e-03
+2.69295814700000e-03
+2.62543692890000e-03
+2.56878460460000e-03
+2.52125160790000e-03
+2.48137000000000e-03
+2.42037365300000e-03
+2.32192681100000e-03
+2.19124315440000e-03
+2.03350957080000e-03
+1.85371828800000e-03
+1.65654221500000e-03
+1.43898706010000e-03
+1.19557473600000e-03
+9.27496414520000e-04
+6.36763119340000e-04
+3.26314002040000e-04
+2.05394011631302e+04
+4.04364881550507e+05
+2.05460462371879e+04
+2.05686153542300e+04
+2.06005944430357e+04
+2.06355126184412e+04
+2.06721043900714e+04
+2.07024237191936e+04
+2.07287853208923e+04
+2.07542515396519e+04
+2.07876725470010e+04
+2.08250136182111e+04
+2.08606909307370e+04
+2.08939593416520e+04
+2.09215529793461e+04
+2.09500670984033e+04
+2.09844252799193e+04
+2.10124326161866e+04
+2.10406354399948e+04
+2.10692151515684e+04
+2.10910962300808e+04
+2.11242269543558e+04
+2.11541112006755e+04
+2.11759513936434e+04
+2.11984827360894e+04
+2.12189605903577e+04
+2.12502472595346e+04
+2.12793773846904e+04
+2.12963487515863e+04
+2.13207927994219e+04
+2.13438971121918e+04
+2.13609595478486e+04
+2.13835951740789e+04
+2.14115926614942e+04
+2.14377106117840e+04
+2.14576563156429e+04
+2.14735328049741e+04
+2.15004160273590e+04
+2.15328949986152e+04
+2.15522563615448e+04
+2.15623092356020e+04
+2.15773630269453e+04
+2.16087531825802e+04
+2.16335821258778e+04
+2.16503039147979e+04
+2.16615886157236e+04
+2.16802295690199e+04
+2.16990090585895e+04
+2.17148026941561e+04
+2.17352606001357e+04
+2.17447910402869e+04
+2.17571257934694e+04
+2.17785294271335e+04
+2.17992496780055e+04
+2.18132334350947e+04
+2.18317932547099e+04
+2.18502648783299e+04
+2.18586981160522e+04
+2.18651116642460e+04
+2.18854506139622e+04
+2.19132524895087e+04
+2.19315891663421e+04
+2.19339621030366e+04
+2.19447820713706e+04
+2.19665126134641e+04
+2.19756282417306e+04
+2.19789001996248e+04
+2.19890661424128e+04
+2.20137362177314e+04
+2.20333704949666e+04
+2.20484272711075e+04
+2.20628537953328e+04
+2.20730525461503e+04
+2.20846025052754e+04
+2.21097553809078e+04
+2.21324632145347e+04
+2.21343222332662e+04
+2.21541833917623e+04
+2.21695113899516e+04
+2.21826126625558e+04
+2.22095498210884e+04
+2.22246806380706e+04
+2.22386524466876e+04
+2.22453070395915e+04
+2.22538076813981e+04
+2.22819540336176e+04
+2.23097641821262e+04
+2.23252046241951e+04
+2.23417817322444e+04
+2.23577370371550e+04
+2.23874559102136e+04
+2.24107305949576e+04
+2.24246307236727e+04
+2.24494849796682e+04
+2.24724680524956e+04
+2.24990104112646e+04
+2.25116706263603e+04
+2.25163532959024e+04
+2.25513584324651e+04
+2.25856755854681e+04
+2.25986430315776e+04
+2.26315123930487e+04
+2.26768143058722e+04
+2.27347208035893e+04
+2.28037192172033e+04
+2.28686170258981e+04
+2.29454469732743e+04
+2.30341469322246e+04
+2.31207558195536e+04
+2.32221938325967e+04
+2.33487621191862e+04
+2.35035946054826e+04
+2.36927191730183e+04
+2.39214382720644e+04
+2.42141577651645e+04
+2.45275745848105e+04
+2.48576603843428e+04
+2.52288674466684e+04
+2.56258554043611e+04
+2.60712423519013e+04
+2.65565402869211e+04
+2.70623778700498e+04
+2.76001662711420e+04
+2.81502579016190e+04
+2.87352579997802e+04
+2.92998360269985e+04
+3.00703543017764e+04
+3.56332377478873e+04
+5.35023125726636e+04
+8.29931736939443e+04
+1.20536030878044e+05
+1.63948605271917e+05
+2.09291280050767e+05
+2.51956030280645e+05
+2.89843269624093e+05
+3.23426623389665e+05
+3.53534826182465e+05
+3.79376562041672e+05
+3.97630591545623e+05
+0.00000000000000e+00
+0.00000000000000e+00
+0.00000000000000e+00
+0.00000000000000e+00
+0.00000000000000e+00
+0.00000000000000e+00
+0.00000000000000e+00
+0.00000000000000e+00
+0.00000000000000e+00
+0.00000000000000e+00
+0.00000000000000e+00
+0.00000000000000e+00
+0.00000000000000e+00
+0.00000000000000e+00
+0.00000000000000e+00
+0.00000000000000e+00
+0.00000000000000e+00
+0.00000000000000e+00
+0.00000000000000e+00
+0.00000000000000e+00
+0.00000000000000e+00
+0.00000000000000e+00
+0.00000000000000e+00
+0.00000000000000e+00
+0.00000000000000e+00
+0.00000000000000e+00
+0.00000000000000e+00
+0.00000000000000e+00
+0.00000000000000e+00
+0.00000000000000e+00
+0.00000000000000e+00
+0.00000000000000e+00
+0.00000000000000e+00
+0.00000000000000e+00
+0.00000000000000e+00
+0.00000000000000e+00
+0.00000000000000e+00
+0.00000000000000e+00
+0.00000000000000e+00
+0.00000000000000e+00
+0.00000000000000e+00
+0.00000000000000e+00
+0.00000000000000e+00
+0.00000000000000e+00
+0.00000000000000e+00
+0.00000000000000e+00
+0.00000000000000e+00
+0.00000000000000e+00
+0.00000000000000e+00
+0.00000000000000e+00
+0.00000000000000e+00
+0.00000000000000e+00
+0.00000000000000e+00
+0.00000000000000e+00
+0.00000000000000e+00
+0.00000000000000e+00
+0.00000000000000e+00
+0.00000000000000e+00
+0.00000000000000e+00
+0.00000000000000e+00
+0.00000000000000e+00
+0.00000000000000e+00
+0.00000000000000e+00
+0.00000000000000e+00
+0.00000000000000e+00
+0.00000000000000e+00
+0.00000000000000e+00
+0.00000000000000e+00
+0.00000000000000e+00
+0.00000000000000e+00
+0.00000000000000e+00
+0.00000000000000e+00
+0.00000000000000e+00
+0.00000000000000e+00
+0.00000000000000e+00
+0.00000000000000e+00
+0.00000000000000e+00
+0.00000000000000e+00
+0.00000000000000e+00
+0.00000000000000e+00
+0.00000000000000e+00
+0.00000000000000e+00
+0.00000000000000e+00
+0.00000000000000e+00
+0.00000000000000e+00
+0.00000000000000e+00
+0.00000000000000e+00
+0.00000000000000e+00
+0.00000000000000e+00
+0.00000000000000e+00
+0.00000000000000e+00
+0.00000000000000e+00
+0.00000000000000e+00
+0.00000000000000e+00
+0.00000000000000e+00
+0.00000000000000e+00
+0.00000000000000e+00
+0.00000000000000e+00
+0.00000000000000e+00
+0.00000000000000e+00
+0.00000000000000e+00
+0.00000000000000e+00
+0.00000000000000e+00
+0.00000000000000e+00
+0.00000000000000e+00
+0.00000000000000e+00
+0.00000000000000e+00
+0.00000000000000e+00
+0.00000000000000e+00
+0.00000000000000e+00
+0.00000000000000e+00
+0.00000000000000e+00
+0.00000000000000e+00
+0.00000000000000e+00
+0.00000000000000e+00
+0.00000000000000e+00
+0.00000000000000e+00
+0.00000000000000e+00
+0.00000000000000e+00
+0.00000000000000e+00
+0.00000000000000e+00
+0.00000000000000e+00
+0.00000000000000e+00
+0.00000000000000e+00
+0.00000000000000e+00
+0.00000000000000e+00
+0.00000000000000e+00
+0.00000000000000e+00
+0.00000000000000e+00
+0.00000000000000e+00
+0.00000000000000e+00
+0.00000000000000e+00
+0.00000000000000e+00
+0.00000000000000e+00
+0.00000000000000e+00
+0.00000000000000e+00
+0.00000000000000e+00
+0.00000000000000e+00
+0.00000000000000e+00
+0.00000000000000e+00
+0.00000000000000e+00
+0.00000000000000e+00
+0.00000000000000e+00
+0.00000000000000e+00
+0.00000000000000e+00
+0.00000000000000e+00
+0.00000000000000e+00
+0.00000000000000e+00
+0.00000000000000e+00
+0.00000000000000e+00
+0.00000000000000e+00
+0.00000000000000e+00
+0.00000000000000e+00
+0.00000000000000e+00
+0.00000000000000e+00
+0.00000000000000e+00
+0.00000000000000e+00
+0.00000000000000e+00
+0.00000000000000e+00
+0.00000000000000e+00
+0.00000000000000e+00
+0.00000000000000e+00
+0.00000000000000e+00
+0.00000000000000e+00
+0.00000000000000e+00
+0.00000000000000e+00
+0.00000000000000e+00
+0.00000000000000e+00
+0.00000000000000e+00
+0.00000000000000e+00
+0.00000000000000e+00
+0.00000000000000e+00
+0.00000000000000e+00
+0.00000000000000e+00
+0.00000000000000e+00
+0.00000000000000e+00
+0.00000000000000e+00
+0.00000000000000e+00
+0.00000000000000e+00
+0.00000000000000e+00
+0.00000000000000e+00
+0.00000000000000e+00
+0.00000000000000e+00
+0.00000000000000e+00
+0.00000000000000e+00
+0.00000000000000e+00
+0.00000000000000e+00
+0.00000000000000e+00
+0.00000000000000e+00
+0.00000000000000e+00
+0.00000000000000e+00
+0.00000000000000e+00
+0.00000000000000e+00
+0.00000000000000e+00
+0.00000000000000e+00
+0.00000000000000e+00
+0.00000000000000e+00
+0.00000000000000e+00
+0.00000000000000e+00
+0.00000000000000e+00
+0.00000000000000e+00
+0.00000000000000e+00
+0.00000000000000e+00
+0.00000000000000e+00
+0.00000000000000e+00
+0.00000000000000e+00
+0.00000000000000e+00
+0.00000000000000e+00
+0.00000000000000e+00
+0.00000000000000e+00
+0.00000000000000e+00
+0.00000000000000e+00
+0.00000000000000e+00
+0.00000000000000e+00
+0.00000000000000e+00
+0.00000000000000e+00
+0.00000000000000e+00
+0.00000000000000e+00
+0.00000000000000e+00
+0.00000000000000e+00
+0.00000000000000e+00
+0.00000000000000e+00
+0.00000000000000e+00
+0.00000000000000e+00
+0.00000000000000e+00
+0.00000000000000e+00
+0.00000000000000e+00
+0.00000000000000e+00
+0.00000000000000e+00
+0.00000000000000e+00
+0.00000000000000e+00
+0.00000000000000e+00
+0.00000000000000e+00
+0.00000000000000e+00
+0.00000000000000e+00
+0.00000000000000e+00
+0.00000000000000e+00
+0.00000000000000e+00
+0.00000000000000e+00
+0.00000000000000e+00
+0.00000000000000e+00
+0.00000000000000e+00
+0.00000000000000e+00
+0.00000000000000e+00
+0.00000000000000e+00
+0.00000000000000e+00
+0.00000000000000e+00
+0.00000000000000e+00
+0.00000000000000e+00
+0.00000000000000e+00
+0.00000000000000e+00
+0.00000000000000e+00
+0.00000000000000e+00
+0.00000000000000e+00
+0.00000000000000e+00
+0.00000000000000e+00
+0.00000000000000e+00
+0.00000000000000e+00
+0.00000000000000e+00
+0.00000000000000e+00
+0.00000000000000e+00
+0.00000000000000e+00
+0.00000000000000e+00
+0.00000000000000e+00
+0.00000000000000e+00
+0.00000000000000e+00
+0.00000000000000e+00
+0.00000000000000e+00
+0.00000000000000e+00
+0.00000000000000e+00
+0.00000000000000e+00
+0.00000000000000e+00
+0.00000000000000e+00
+0.00000000000000e+00
+0.00000000000000e+00
+0.00000000000000e+00
+0.00000000000000e+00
+0.00000000000000e+00
+2.93000000000000e+02
+2.93000000000000e+02
+2.93000000000000e+02
+2.93000000000000e+02
+2.93000000000000e+02
+2.93000000000000e+02
+2.93000000000000e+02
+2.93000000000000e+02
+2.93000000000000e+02
+2.93000000000000e+02
+2.93000000000000e+02
+2.93000000000000e+02
+2.93000000000000e+02
+2.93000000000000e+02
+2.93000000000000e+02
+2.93000000000000e+02
+2.93000000000000e+02
+2.93000000000000e+02
+2.93000000000000e+02
+2.93000000000000e+02
+2.93000000000000e+02
+2.93000000000000e+02
+2.93000000000000e+02
+2.93000000000000e+02
+2.93000000000000e+02
+2.93000000000000e+02
+2.93000000000000e+02
+2.93000000000000e+02
+2.93000000000000e+02
+2.93000000000000e+02
+2.93000000000000e+02
+2.93000000000000e+02
+2.93000000000000e+02
+2.93000000000000e+02
+2.93000000000000e+02
+2.93000000000000e+02
+2.93000000000000e+02
+2.93000000000000e+02
+2.93000000000000e+02
+2.93000000000000e+02
+2.93000000000000e+02
+2.93000000000000e+02
+2.93000000000000e+02
+2.93000000000000e+02
+2.93000000000000e+02
+2.93000000000000e+02
+2.93000000000000e+02
+2.93000000000000e+02
+2.93000000000000e+02
+2.93000000000000e+02
+2.93000000000000e+02
+2.93000000000000e+02
+2.93000000000000e+02
+2.93000000000000e+02
+2.93000000000000e+02
+2.93000000000000e+02
+2.93000000000000e+02
+2.93000000000000e+02
+2.93000000000000e+02
+2.93000000000000e+02
+2.93000000000000e+02
+2.93000000000000e+02
+2.93000000000000e+02
+2.93000000000000e+02
+2.93000000000000e+02
+2.93000000000000e+02
+2.93000000000000e+02
+2.93000000000000e+02
+2.93000000000000e+02
+2.93000000000000e+02
+2.93000000000000e+02
+2.93000000000000e+02
+2.93000000000000e+02
+2.93000000000000e+02
+2.93000000000000e+02
+2.93000000000000e+02
+2.93000000000000e+02
+2.93000000000000e+02
+2.93000000000000e+02
+2.93000000000000e+02
+2.93000000000000e+02
+2.93000000000000e+02
+2.93000000000000e+02
+2.93000000000000e+02
+2.93000000000000e+02
+2.93000000000000e+02
+2.93000000000000e+02
+2.93000000000000e+02
+2.93000000000000e+02
+2.93000000000000e+02
+2.93000000000000e+02
+2.93000000000000e+02
+2.93000000000000e+02
+2.93000000000000e+02
+2.93000000000000e+02
+2.93000000000000e+02
+2.93000000000000e+02
+2.93000000000000e+02
+2.93000000000000e+02
+2.93000000000000e+02
+2.93000000000000e+02
+2.93000000000000e+02
+2.93000000000000e+02
+2.93000000000000e+02
+2.93000000000000e+02
+2.93000000000000e+02
+2.93000000000000e+02
+2.93000000000000e+02
+2.93000000000000e+02
+2.93000000000000e+02
+2.93000000000000e+02
+2.93000000000000e+02
+2.93000000000000e+02
+2.93000000000000e+02
+2.93000000000000e+02
+2.93000000000000e+02
+2.93000000000000e+02
+2.93000000000000e+02
+2.93000000000000e+02
+2.93000000000000e+02
+2.93000000000000e+02
+2.93000000000000e+02
+2.93000000000000e+02
+2.93000000000000e+02
+2.93000000000000e+02
+2.93000000000000e+02
+2.93000000000000e+02
+2.93000000000000e+02
+2.93000000000000e+02
+2.93000000000000e+02
+2.93000000000000e+02
+2.93000000000000e+02
+2.93000000000000e+02
+2.93000000000000e+02
+2.93000000000000e+02
+2.93000000000000e+02
+2.93000000000000e+02
+2.93000000000000e+02
+2.93000000000000e+02
+2.43299475143568e-01
+0.00000000000000e+00
+2.43378189367887e-01
+2.43645531842343e-01
+2.44024340136714e-01
+2.44437963381211e-01
+2.44871411209679e-01
+2.45230558820826e-01
+2.45542825172037e-01
+2.45844485264699e-01
+2.46240373805081e-01
+2.46682697461675e-01
+2.47105313064883e-01
+2.47499394024215e-01
+2.47826254457728e-01
+2.48164018453167e-01
+2.48571008290084e-01
+2.48902769190019e-01
+2.49236845737606e-01
+2.49575386709195e-01
+2.49834579023292e-01
+2.50227029015539e-01
+2.50581022853379e-01
+2.50839730857760e-01
+2.51106625873240e-01
+2.51349196294646e-01
+2.51719802532349e-01
+2.52064863427989e-01
+2.52265897753452e-01
+2.52555449720500e-01
+2.52829131855916e-01
+2.53031244936379e-01
+2.53299375245420e-01
+2.53631019480779e-01
+2.53940399659240e-01
+2.54176666493005e-01
+2.54364731446347e-01
+2.54683176655360e-01
+2.55067906307266e-01
+2.55297251330590e-01
+2.55416332649582e-01
+2.55594652333962e-01
+2.55966484420496e-01
+2.56260595666714e-01
+2.56458673616281e-01
+2.56592346540363e-01
+2.56813157951423e-01
+2.57035610393900e-01
+2.57222693902979e-01
+2.57465028026931e-01
+2.57577920855122e-01
+2.57724032173145e-01
+2.57977568914323e-01
+2.58223010644681e-01
+2.58388655238372e-01
+2.58608505580419e-01
+2.58827311196810e-01
+2.58927207113701e-01
+2.59003178798414e-01
+2.59244103825956e-01
+2.59573430940936e-01
+2.59790638045175e-01
+2.59818746666635e-01
+2.59946914600832e-01
+2.60204323735789e-01
+2.60312302909829e-01
+2.60351060886852e-01
+2.60471481561486e-01
+2.60763710937070e-01
+2.60996288766785e-01
+2.61174643807583e-01
+2.61345533199357e-01
+2.61466342501503e-01
+2.61603157541569e-01
+2.61901105928239e-01
+2.62170091569991e-01
+2.62192112576254e-01
+2.62427377927930e-01
+2.62608945729485e-01
+2.62764136853268e-01
+2.63083220962915e-01
+2.63262453054495e-01
+2.63427956112560e-01
+2.63506783092371e-01
+2.63607477444338e-01
+2.63940885057726e-01
+2.64270310170079e-01
+2.64453209925602e-01
+2.64649574057924e-01
+2.64838572621205e-01
+2.65190607530091e-01
+2.65466307806713e-01
+2.65630961780506e-01
+2.65925372868286e-01
+2.66197618855970e-01
+2.66512026365043e-01
+2.66661992942136e-01
+2.66717461503894e-01
+2.67132114846773e-01
+2.67538618680441e-01
+2.67692224562489e-01
+2.68081578581659e-01
+2.68618202387067e-01
+2.69304133802013e-01
+2.70121454505995e-01
+2.70890201494674e-01
+2.71800290631328e-01
+2.72850985989311e-01
+2.73876911558540e-01
+2.75078495535453e-01
+2.76577760166027e-01
+2.78411828372393e-01
+2.80652103424851e-01
+2.83361395497743e-01
+2.86828804234245e-01
+2.90541383151001e-01
+2.94451414467917e-01
+2.98848547700581e-01
+3.03551068527640e-01
+3.08826899585794e-01
+3.14575496243546e-01
+3.20567395301636e-01
+3.26937767771837e-01
+3.33453878144917e-01
+3.40383496769683e-01
+3.47071205754420e-01
+3.56198379928247e-01
+4.22093515427775e-01
+6.33761640103844e-01
+9.83095633600175e-01
+1.42780954593555e+00
+1.94205319309799e+00
+2.47915984424528e+00
+2.98454514032170e+00
+3.43333843150325e+00
+3.83115004635168e+00
+4.18779676057789e+00
+4.49390504101938e+00
+4.71013314632261e+00
-5.20414854685057e+03
+0.00000000000000e+00
-5.20414854685057e+03
-5.20414854685057e+03
-5.20414854685057e+03
-5.20414854685057e+03
-5.20414854685057e+03
-5.20414854685057e+03
-5.20414854685057e+03
-5.20414854685057e+03
-5.20414854685057e+03
-5.20414854685057e+03
-5.20414854685057e+03
-5.20414854685057e+03
-5.20414854685057e+03
-5.20414854685057e+03
-5.20414854685057e+03
-5.20414854685057e+03
-5.20414854685057e+03
-5.20414854685057e+03
-5.20414854685057e+03
-5.20414854685057e+03
-5.20414854685057e+03
-5.20414854685057e+03
-5.20414854685057e+03
-5.20414854685057e+03
-5.20414854685057e+03
-5.20414854685057e+03
-5.20414854685057e+03
-5.20414854685057e+03
-5.20414854685057e+03
-5.20414854685057e+03
-5.20414854685057e+03
-5.20414854685057e+03
-5.20414854685057e+03
-5.20414854685057e+03
-5.20414854685057e+03
-5.20414854685057e+03
-5.20414854685057e+03
-5.20414854685057e+03
-5.20414854685057e+03
-5.20414854685057e+03
-5.20414854685057e+03
-5.20414854685057e+03
-5.20414854685057e+03
-5.20414854685057e+03
-5.20414854685057e+03
-5.20414854685057e+03
-5.20414854685057e+03
-5.20414854685057e+03
-5.20414854685057e+03
-5.20414854685057e+03
-5.20414854685057e+03
-5.20414854685057e+03
-5.20414854685057e+03
-5.20414854685057e+03
-5.20414854685057e+03
-5.20414854685057e+03
-5.20414854685057e+03
-5.20414854685057e+03
-5.20414854685057e+03
-5.20414854685057e+03
-5.20414854685057e+03
-5.20414854685057e+03
-5.20414854685057e+03
-5.20414854685057e+03
-5.20414854685057e+03
-5.20414854685057e+03
-5.20414854685057e+03
-5.20414854685057e+03
-5.20414854685057e+03
-5.20414854685057e+03
-5.20414854685057e+03
-5.20414854685057e+03
-5.20414854685057e+03
-5.20414854685057e+03
-5.20414854685057e+03
-5.20414854685057e+03
-5.20414854685057e+03
-5.20414854685057e+03
-5.20414854685057e+03
-5.20414854685057e+03
-5.20414854685057e+03
-5.20414854685057e+03
-5.20414854685057e+03
-5.20414854685057e+03
-5.20414854685057e+03
-5.20414854685057e+03
-5.20414854685057e+03
-5.20414854685057e+03
-5.20414854685057e+03
-5.20414854685057e+03
-5.20414854685057e+03
-5.20414854685057e+03
-5.20414854685057e+03
-5.20414854685057e+03
-5.20414854685057e+03
-5.20414854685057e+03
-5.20414854685057e+03
-5.20414854685057e+03
-5.20414854685057e+03
-5.20414854685057e+03
-5.20414854685057e+03
-5.20414854685057e+03
-5.20414854685057e+03
-5.20414854685057e+03
-5.20414854685057e+03
-5.20414854685057e+03
-5.20414854685057e+03
-5.20414854685057e+03
-5.20414854685057e+03
-5.20414854685057e+03
-5.20414854685057e+03
-5.20414854685057e+03
-5.20414854685057e+03
-5.20414854685057e+03
-5.20414854685057e+03
-5.20414854685057e+03
-5.20414854685057e+03
-5.20414854685057e+03
-5.20414854685057e+03
-5.20414854685057e+03
-5.20414854685057e+03
-5.20414854685057e+03
-5.20414854685057e+03
-5.20414854685057e+03
-5.20414854685057e+03
-5.20414854685057e+03
-5.20414854685057e+03
-5.20414854685057e+03
-5.20414854685057e+03
-5.20414854685057e+03
-5.20414854685057e+03
-5.20414854685057e+03
-5.20414854685057e+03
-5.20414854685057e+03
-5.20414854685057e+03
-5.20414854685057e+03
-5.20414854685057e+03
+0.00000000000000e+00
+0.00000000000000e+00
+0.00000000000000e+00
+0.00000000000000e+00
+0.00000000000000e+00
+0.00000000000000e+00
+0.00000000000000e+00
+0.00000000000000e+00
+0.00000000000000e+00
+0.00000000000000e+00
+0.00000000000000e+00
+0.00000000000000e+00
+0.00000000000000e+00
+0.00000000000000e+00
+0.00000000000000e+00
+0.00000000000000e+00
+0.00000000000000e+00
+0.00000000000000e+00
+0.00000000000000e+00
+0.00000000000000e+00
+0.00000000000000e+00
+0.00000000000000e+00
+0.00000000000000e+00
+0.00000000000000e+00
+0.00000000000000e+00
+0.00000000000000e+00
+0.00000000000000e+00
+0.00000000000000e+00
+0.00000000000000e+00
+0.00000000000000e+00
+0.00000000000000e+00
+0.00000000000000e+00
+0.00000000000000e+00
+0.00000000000000e+00
+0.00000000000000e+00
+0.00000000000000e+00
+0.00000000000000e+00
+0.00000000000000e+00
+0.00000000000000e+00
+0.00000000000000e+00
+0.00000000000000e+00
+0.00000000000000e+00
+0.00000000000000e+00
+0.00000000000000e+00
+0.00000000000000e+00
+0.00000000000000e+00
+0.00000000000000e+00
+0.00000000000000e+00
+0.00000000000000e+00
+0.00000000000000e+00
+0.00000000000000e+00
+0.00000000000000e+00
+0.00000000000000e+00
+0.00000000000000e+00
+0.00000000000000e+00
+0.00000000000000e+00
+0.00000000000000e+00
+0.00000000000000e+00
+0.00000000000000e+00
+0.00000000000000e+00
+0.00000000000000e+00
+0.00000000000000e+00
+0.00000000000000e+00
+0.00000000000000e+00
+0.00000000000000e+00
+0.00000000000000e+00
+0.00000000000000e+00
+0.00000000000000e+00
+0.00000000000000e+00
+0.00000000000000e+00
+0.00000000000000e+00
+0.00000000000000e+00
+0.00000000000000e+00
+0.00000000000000e+00
+0.00000000000000e+00
+0.00000000000000e+00
+0.00000000000000e+00
+0.00000000000000e+00
+0.00000000000000e+00
+0.00000000000000e+00
+0.00000000000000e+00
+0.00000000000000e+00
+0.00000000000000e+00
+0.00000000000000e+00
+0.00000000000000e+00
+0.00000000000000e+00
+0.00000000000000e+00
+0.00000000000000e+00
+0.00000000000000e+00
+0.00000000000000e+00
+0.00000000000000e+00
+0.00000000000000e+00
+0.00000000000000e+00
+0.00000000000000e+00
+0.00000000000000e+00
+0.00000000000000e+00
+0.00000000000000e+00
+0.00000000000000e+00
+0.00000000000000e+00
+0.00000000000000e+00
+0.00000000000000e+00
+0.00000000000000e+00
+0.00000000000000e+00
+0.00000000000000e+00
+0.00000000000000e+00
+0.00000000000000e+00
+0.00000000000000e+00
+0.00000000000000e+00
+0.00000000000000e+00
+0.00000000000000e+00
+0.00000000000000e+00
+0.00000000000000e+00
+0.00000000000000e+00
+0.00000000000000e+00
+0.00000000000000e+00
+0.00000000000000e+00
+0.00000000000000e+00
+0.00000000000000e+00
+0.00000000000000e+00
+0.00000000000000e+00
+0.00000000000000e+00
+0.00000000000000e+00
+0.00000000000000e+00
+0.00000000000000e+00
+0.00000000000000e+00
+0.00000000000000e+00
+0.00000000000000e+00
+0.00000000000000e+00
+0.00000000000000e+00
+0.00000000000000e+00
+0.00000000000000e+00
+0.00000000000000e+00
+0.00000000000000e+00
+0.00000000000000e+00
+0.00000000000000e+00
+0.00000000000000e+00
+0.00000000000000e+00
+0.00000000000000e+00
+0.00000000000000e+00
+0.00000000000000e+00
+0.00000000000000e+00
+0.00000000000000e+00
+0.00000000000000e+00
+0.00000000000000e+00
+0.00000000000000e+00
+0.00000000000000e+00
+0.00000000000000e+00
+0.00000000000000e+00
+0.00000000000000e+00
+0.00000000000000e+00
+0.00000000000000e+00
+0.00000000000000e+00
+0.00000000000000e+00
+0.00000000000000e+00
+0.00000000000000e+00
+0.00000000000000e+00
+0.00000000000000e+00
+0.00000000000000e+00
+0.00000000000000e+00
+0.00000000000000e+00
+0.00000000000000e+00
+0.00000000000000e+00
+0.00000000000000e+00
+0.00000000000000e+00
+0.00000000000000e+00
+0.00000000000000e+00
+0.00000000000000e+00
+0.00000000000000e+00
+0.00000000000000e+00
+0.00000000000000e+00
+0.00000000000000e+00
+0.00000000000000e+00
+0.00000000000000e+00
+0.00000000000000e+00
+0.00000000000000e+00
+0.00000000000000e+00
+0.00000000000000e+00
+0.00000000000000e+00
+0.00000000000000e+00
+0.00000000000000e+00
+0.00000000000000e+00
+0.00000000000000e+00
+0.00000000000000e+00
+0.00000000000000e+00
+0.00000000000000e+00
+0.00000000000000e+00
+0.00000000000000e+00
+0.00000000000000e+00
+0.00000000000000e+00
+0.00000000000000e+00
+0.00000000000000e+00
+0.00000000000000e+00
+0.00000000000000e+00
+0.00000000000000e+00
+0.00000000000000e+00
+0.00000000000000e+00
+0.00000000000000e+00
+0.00000000000000e+00
+0.00000000000000e+00
+0.00000000000000e+00
+0.00000000000000e+00
+0.00000000000000e+00
+0.00000000000000e+00
+0.00000000000000e+00
+0.00000000000000e+00
+0.00000000000000e+00
+0.00000000000000e+00
+0.00000000000000e+00
+0.00000000000000e+00
+0.00000000000000e+00
+0.00000000000000e+00
+0.00000000000000e+00
+0.00000000000000e+00
+0.00000000000000e+00
+0.00000000000000e+00
+0.00000000000000e+00
+0.00000000000000e+00
+0.00000000000000e+00
+0.00000000000000e+00
+0.00000000000000e+00
+0.00000000000000e+00
+0.00000000000000e+00
+0.00000000000000e+00
+0.00000000000000e+00
+0.00000000000000e+00
+0.00000000000000e+00
+0.00000000000000e+00
+0.00000000000000e+00
+0.00000000000000e+00
+0.00000000000000e+00
+0.00000000000000e+00
+0.00000000000000e+00
+0.00000000000000e+00
+0.00000000000000e+00
+0.00000000000000e+00
+0.00000000000000e+00
+0.00000000000000e+00
+0.00000000000000e+00