TITLE = Boundary data
VARIABLES =  "x0" "x1" "p" "u" "v" "T" "rho" "H" "M" "xc0" "xc1" "xc2" "xc3" "xc4"
ZONE   T= "ZONE0 Wall", N=139, E=138, ZONETYPE=FELINESEG, DATAPACKING=BLOCK, STRANDID=1, SOLUTIONTIME=9.32100000000000e+03, VARLOCATION=( [1-2]=NODAL,[3-6]=NODAL,[7-14]=NODAL)
+1.10000000000000e+00
+1.80137700000000e-02
+1.07163162050000e+00
+1.04521824960000e+00
+1.02062515790000e+00
+9.97726900530000e-01
+9.76406678040000e-01
+9.56555740000000e-01
+9.36704819320000e-01
+9.16323082120000e-01
+8.95396334290000e-01
+8.73910002150000e-01
+8.51849122350000e-01
+8.31320160150000e-01
+8.12216738500000e-01
+7.94439867200000e-01
+7.77897430000000e-01
+7.61354995270000e-01
+7.45234795260000e-01
+7.29526052700000e-01
+7.14218265420000e-01
+6.99301199290000e-01
+6.84823989550000e-01
+6.70773666230000e-01
+6.57137641830000e-01
+6.43903700000000e-01
+6.30669783380000e-01
+6.17647687050000e-01
+6.04834020630000e-01
+5.92225448030000e-01
+5.79818686550000e-01
+5.67610506010000e-01
+5.55597727970000e-01
+5.43777224830000e-01
+5.32145919060000e-01
+5.20700782410000e-01
+5.09438835080000e-01
+4.98357144950000e-01
+4.87452826860000e-01
+4.76723041810000e-01
+4.66164996260000e-01
+4.55775941360000e-01
+4.45553172270000e-01
+4.35494027450000e-01
+4.25595887940000e-01
+4.15856176710000e-01
+4.06272357990000e-01
+3.96841936580000e-01
+3.87562457220000e-01
+3.78431503960000e-01
+3.69446699500000e-01
+3.60605704610000e-01
+3.51906217500000e-01
+3.43345973200000e-01
+3.34922743020000e-01
+3.26634333920000e-01
+3.18478587980000e-01
+3.10453381810000e-01
+3.02556626000000e-01
+2.94786264610000e-01
+2.87140274570000e-01
+2.79616665220000e-01
+2.72213477740000e-01
+2.64928784690000e-01
+2.57797843450000e-01
+2.50817408920000e-01
+2.43984304490000e-01
+2.37295420580000e-01
+2.30747713260000e-01
+2.24338202820000e-01
+2.18063972470000e-01
+2.11922166960000e-01
+2.05909991320000e-01
+2.00024709550000e-01
+1.94263643420000e-01
+1.88624171220000e-01
+1.83103726550000e-01
+1.77699797220000e-01
+1.72409924020000e-01
+1.67231699680000e-01
+1.62162767720000e-01
+1.57200821390000e-01
+1.52343602640000e-01
+1.47588901070000e-01
+1.42934552950000e-01
+1.38378440200000e-01
+1.33918489440000e-01
+1.29552671070000e-01
+1.25278998310000e-01
+1.21095526330000e-01
+1.17000351330000e-01
+1.12991609710000e-01
+1.09067477190000e-01
+1.05226167990000e-01
+1.01465934040000e-01
+9.77850641540000e-02
+9.41818832550000e-02
+9.06547516300000e-02
+8.72020641710000e-02
+8.38222496510000e-02
+8.05137700000000e-02
+7.72052851670000e-02
+7.39068100290000e-02
+7.06183143040000e-02
+6.73397677990000e-02
+6.40711404120000e-02
+6.08124021340000e-02
+5.75635230450000e-02
+5.43244733180000e-02
+5.10952232130000e-02
+4.78757430830000e-02
+4.46660033680000e-02
+4.14659746000000e-02
+3.82756273980000e-02
+3.50949324710000e-02
+3.24262341680000e-02
+3.01871163650000e-02
+2.83084294680000e-02
+2.67321548970000e-02
+2.54096133230000e-02
+2.42999613330000e-02
+2.33689300800000e-02
+2.25877669750000e-02
+2.19323477340000e-02
+2.13824313620000e-02
+2.09210350560000e-02
+2.05339097370000e-02
+2.02091000000000e-02
+1.98878224150000e-02
+1.95871238660000e-02
+1.93102464880000e-02
+1.90595167480000e-02
+1.88363491970000e-02
+1.86413709150000e-02
+1.84694302330000e-02
+1.83181816420000e-02
+1.81921852220000e-02
+1.80962223910000e-02
+1.80351572710000e-02
+1.35063020000000e-01
+0.00000000000000e+00
+1.31579821070000e-01
+1.28336667020000e-01
+1.25317015130000e-01
+1.22505462730000e-01
+1.19887668640000e-01
+1.17450280000000e-01
+1.15012892550000e-01
+1.12510329000000e-01
+1.09940846540000e-01
+1.07302655730000e-01
+1.04593919320000e-01
+1.02073278810000e-01
+9.97276727340000e-02
+9.75449466160000e-02
+9.55137900000000e-02
+9.34826345760000e-02
+9.15033230530000e-02
+8.95745321480000e-02
+8.76949723570000e-02
+8.58633870880000e-02
+8.40858093860000e-02
+8.23606467440000e-02
+8.06863536080000e-02
+7.90614300000000e-02
+7.74365094810000e-02
+7.58375972200000e-02
+7.42642769330000e-02
+7.27161389990000e-02
+7.11927803510000e-02
+6.96938043770000e-02
+6.82188208090000e-02
+6.67674456300000e-02
+6.53393009660000e-02
+6.39340149930000e-02
+6.25512218380000e-02
+6.11905614830000e-02
+5.98516796750000e-02
+5.85342278280000e-02
+5.72378629380000e-02
+5.59622474890000e-02
+5.47070493690000e-02
+5.34719417810000e-02
+5.22566031580000e-02
+5.10607170820000e-02
+4.98839721960000e-02
+4.87260621310000e-02
+4.75866854180000e-02
+4.64655454140000e-02
+4.53623502270000e-02
+4.42768126330000e-02
+4.32086500070000e-02
+4.21575842480000e-02
+4.11233417060000e-02
+4.01056531100000e-02
+3.91042535010000e-02
+3.81188821590000e-02
+3.71492825380000e-02
+3.61952021970000e-02
+3.52563927380000e-02
+3.43326097360000e-02
+3.34236126800000e-02
+3.25291649090000e-02
+3.16535954860000e-02
+3.07965059620000e-02
+2.99575062980000e-02
+2.91362146850000e-02
+2.83322573770000e-02
+2.75452685110000e-02
+2.67748899500000e-02
+2.60207711140000e-02
+2.52825688220000e-02
+2.45599471390000e-02
+2.38525772170000e-02
+2.31601371500000e-02
+2.24823118260000e-02
+2.18187927850000e-02
+2.11692780770000e-02
+2.05334721220000e-02
+1.99110855830000e-02
+1.93018352270000e-02
+1.87054438010000e-02
+1.81216399010000e-02
+1.75501578530000e-02
+1.69907375910000e-02
+1.64431245360000e-02
+1.59070694840000e-02
+1.53823284910000e-02
+1.48686627590000e-02
+1.43658385330000e-02
+1.38736269900000e-02
+1.33918041370000e-02
+1.29201507100000e-02
+1.24584520700000e-02
+1.20064981100000e-02
+1.15640831590000e-02
+1.11310058830000e-02
+1.07070692020000e-02
+1.02920801910000e-02
+9.88585000000000e-03
+9.47961927560000e-03
+9.07461758690000e-03
+8.67084121560000e-03
+8.26828645440000e-03
+7.86694960750000e-03
+7.46682699000000e-03
+7.06791492850000e-03
+6.67020976030000e-03
+6.27370783410000e-03
+5.87840550950000e-03
+5.48429915710000e-03
+5.09138515870000e-03
+4.69965990670000e-03
+4.30911980470000e-03
+3.98144496270000e-03
+3.70651595660000e-03
+3.47584228650000e-03
+3.28230016880000e-03
+3.11991253550000e-03
+2.98366444790000e-03
+2.86934822170000e-03
+2.77343348430000e-03
+2.69295814700000e-03
+2.62543692890000e-03
+2.56878460460000e-03
+2.52125160790000e-03
+2.48137000000000e-03
+2.42037365300000e-03
+2.32192681100000e-03
+2.19124315440000e-03
+2.03350957080000e-03
+1.85371828800000e-03
+1.65654221500000e-03
+1.43898706010000e-03
+1.19557473600000e-03
+9.27496414520000e-04
+6.36763119340000e-04
+3.26314002040000e-04
+1.38888598398296e+04
+3.52427012860824e+04
+1.38840222230794e+04
+1.38802733557715e+04
+1.38815485750543e+04
+1.38826405907214e+04
+1.38838280676797e+04
+1.38852256752624e+04
+1.38869261982685e+04
+1.38889592250296e+04
+1.38913091080294e+04
+1.38938923552405e+04
+1.38965854995583e+04
+1.38989900418968e+04
+1.39010069847048e+04
+1.39026566060199e+04
+1.39039729891472e+04
+1.39050812758294e+04
+1.39060444640876e+04
+1.39069556786890e+04
+1.39079116983140e+04
+1.39090040440562e+04
+1.39102737154866e+04
+1.39117518804514e+04
+1.39134218813839e+04
+1.39152049331120e+04
+1.39170686679753e+04
+1.39188766120993e+04
+1.39205617813600e+04
+1.39220825553983e+04
+1.39234109272144e+04
+1.39246010057902e+04
+1.39257031436215e+04
+1.39267638433631e+04
+1.39278478749080e+04
+1.39289855230924e+04
+1.39301499095260e+04
+1.39313486677460e+04
+1.39327285412729e+04
+1.39342443089973e+04
+1.39357245188143e+04
+1.39371655445056e+04
+1.39385625331607e+04
+1.39399165351490e+04
+1.39412743799949e+04
+1.39426827400171e+04
+1.39441803348807e+04
+1.39457749352647e+04
+1.39474183563435e+04
+1.39490401265985e+04
+1.39505774233397e+04
+1.39520372029137e+04
+1.39534788548526e+04
+1.39549033750058e+04
+1.39563294959215e+04
+1.39577692539546e+04
+1.39591797565920e+04
+1.39605238587457e+04
+1.39618032756965e+04
+1.39630389719564e+04
+1.39642109047626e+04
+1.39653308843647e+04
+1.39664383764193e+04
+1.39674915284583e+04
+1.39684464061656e+04
+1.39693367153884e+04
+1.39701860829546e+04
+1.39710246102213e+04
+1.39717936199308e+04
+1.39722834318160e+04
+1.39724837229517e+04
+1.39724394232936e+04
+1.39720835945532e+04
+1.39714902015454e+04
+1.39706590793855e+04
+1.39695231526795e+04
+1.39680535701726e+04
+1.39661747748808e+04
+1.39638708991982e+04
+1.39611261408536e+04
+1.39578391396632e+04
+1.39539170263653e+04
+1.39493515011968e+04
+1.39441302401814e+04
+1.39382151567171e+04
+1.39317027063359e+04
+1.39247200517150e+04
+1.39174301859617e+04
+1.39100644104173e+04
+1.39028765587464e+04
+1.38960522136811e+04
+1.38895878961449e+04
+1.38833133136158e+04
+1.38769257446334e+04
+1.38700674137161e+04
+1.38624387520753e+04
+1.38539225431686e+04
+1.38446236394986e+04
+1.38349083749496e+04
+1.38251054974919e+04
+1.38222379294440e+04
+1.38142963130187e+04
+1.37926011359715e+04
+1.37679419184778e+04
+1.37413664394698e+04
+1.37135601255004e+04
+1.36855384680434e+04
+1.36589182730032e+04
+1.36362900443340e+04
+1.36215083153811e+04
+1.36201235502814e+04
+1.36407048581970e+04
+1.36968551742475e+04
+1.38095969556619e+04
+1.40227683206710e+04
+1.43411866525501e+04
+1.47801327785288e+04
+1.53507126285672e+04
+1.60546281245023e+04
+1.68779036177324e+04
+1.77929899268245e+04
+1.87680646123278e+04
+1.97830062172849e+04
+2.08542883782856e+04
+2.20703206407686e+04
+2.36260458210572e+04
+2.58809302971248e+04
+3.15562415441330e+04
+4.61766997189092e+04
+7.01015719476613e+04
+1.01657681529410e+05
+1.40202622906439e+05
+2.07849233792942e+05
+1.51705254406712e+05
+4.54393583184590e+04
+3.87951885680519e+04
+3.71455241066595e+04
+3.61033496757208e+04
+3.54681956657401e+04
+0.00000000000000e+00
+0.00000000000000e+00
+0.00000000000000e+00
+0.00000000000000e+00
+0.00000000000000e+00
+0.00000000000000e+00
+0.00000000000000e+00
+0.00000000000000e+00
+0.00000000000000e+00
+0.00000000000000e+00
+0.00000000000000e+00
+0.00000000000000e+00
+0.00000000000000e+00
+0.00000000000000e+00
+0.00000000000000e+00
+0.00000000000000e+00
+0.00000000000000e+00
+0.00000000000000e+00
+0.00000000000000e+00
+0.00000000000000e+00
+0.00000000000000e+00
+0.00000000000000e+00
+0.00000000000000e+00
+0.00000000000000e+00
+0.00000000000000e+00
+0.00000000000000e+00
+0.00000000000000e+00
+0.00000000000000e+00
+0.00000000000000e+00
+0.00000000000000e+00
+0.00000000000000e+00
+0.00000000000000e+00
+0.00000000000000e+00
+0.00000000000000e+00
+0.00000000000000e+00
+0.00000000000000e+00
+0.00000000000000e+00
+0.00000000000000e+00
+0.00000000000000e+00
+0.00000000000000e+00
+0.00000000000000e+00
+0.00000000000000e+00
+0.00000000000000e+00
+0.00000000000000e+00
+0.00000000000000e+00
+0.00000000000000e+00
+0.00000000000000e+00
+0.00000000000000e+00
+0.00000000000000e+00
+0.00000000000000e+00
+0.00000000000000e+00
+0.00000000000000e+00
+0.00000000000000e+00
+0.00000000000000e+00
+0.00000000000000e+00
+0.00000000000000e+00
+0.00000000000000e+00
+0.00000000000000e+00
+0.00000000000000e+00
+0.00000000000000e+00
+0.00000000000000e+00
+0.00000000000000e+00
+0.00000000000000e+00
+0.00000000000000e+00
+0.00000000000000e+00
+0.00000000000000e+00
+0.00000000000000e+00
+0.00000000000000e+00
+0.00000000000000e+00
+0.00000000000000e+00
+0.00000000000000e+00
+0.00000000000000e+00
+0.00000000000000e+00
+0.00000000000000e+00
+0.00000000000000e+00
+0.00000000000000e+00
+0.00000000000000e+00
+0.00000000000000e+00
+0.00000000000000e+00
+0.00000000000000e+00
+0.00000000000000e+00
+0.00000000000000e+00
+0.00000000000000e+00
+0.00000000000000e+00
+0.00000000000000e+00
+0.00000000000000e+00
+0.00000000000000e+00
+0.00000000000000e+00
+0.00000000000000e+00
+0.00000000000000e+00
+0.00000000000000e+00
+0.00000000000000e+00
+0.00000000000000e+00
+0.00000000000000e+00
+0.00000000000000e+00
+0.00000000000000e+00
+0.00000000000000e+00
+0.00000000000000e+00
+0.00000000000000e+00
+0.00000000000000e+00
+0.00000000000000e+00
+0.00000000000000e+00
+0.00000000000000e+00
+0.00000000000000e+00
+0.00000000000000e+00
+0.00000000000000e+00
+0.00000000000000e+00
+0.00000000000000e+00
+0.00000000000000e+00
+0.00000000000000e+00
+0.00000000000000e+00
+0.00000000000000e+00
+0.00000000000000e+00
+0.00000000000000e+00
+0.00000000000000e+00
+0.00000000000000e+00
+0.00000000000000e+00
+0.00000000000000e+00
+0.00000000000000e+00
+0.00000000000000e+00
+0.00000000000000e+00
+0.00000000000000e+00
+0.00000000000000e+00
+0.00000000000000e+00
+0.00000000000000e+00
+0.00000000000000e+00
+0.00000000000000e+00
+0.00000000000000e+00
+0.00000000000000e+00
+0.00000000000000e+00
+0.00000000000000e+00
+0.00000000000000e+00
+0.00000000000000e+00
+0.00000000000000e+00
+0.00000000000000e+00
+0.00000000000000e+00
+0.00000000000000e+00
+0.00000000000000e+00
+0.00000000000000e+00
+0.00000000000000e+00
+0.00000000000000e+00
+0.00000000000000e+00
+0.00000000000000e+00
+0.00000000000000e+00
+0.00000000000000e+00
+0.00000000000000e+00
+0.00000000000000e+00
+0.00000000000000e+00
+0.00000000000000e+00
+0.00000000000000e+00
+0.00000000000000e+00
+0.00000000000000e+00
+0.00000000000000e+00
+0.00000000000000e+00
+0.00000000000000e+00
+0.00000000000000e+00
+0.00000000000000e+00
+0.00000000000000e+00
+0.00000000000000e+00
+0.00000000000000e+00
+0.00000000000000e+00
+0.00000000000000e+00
+0.00000000000000e+00
+0.00000000000000e+00
+0.00000000000000e+00
+0.00000000000000e+00
+0.00000000000000e+00
+0.00000000000000e+00
+0.00000000000000e+00
+0.00000000000000e+00
+0.00000000000000e+00
+0.00000000000000e+00
+0.00000000000000e+00
+0.00000000000000e+00
+0.00000000000000e+00
+0.00000000000000e+00
+0.00000000000000e+00
+0.00000000000000e+00
+0.00000000000000e+00
+0.00000000000000e+00
+0.00000000000000e+00
+0.00000000000000e+00
+0.00000000000000e+00
+0.00000000000000e+00
+0.00000000000000e+00
+0.00000000000000e+00
+0.00000000000000e+00
+0.00000000000000e+00
+0.00000000000000e+00
+0.00000000000000e+00
+0.00000000000000e+00
+0.00000000000000e+00
+0.00000000000000e+00
+0.00000000000000e+00
+0.00000000000000e+00
+0.00000000000000e+00
+0.00000000000000e+00
+0.00000000000000e+00
+0.00000000000000e+00
+0.00000000000000e+00
+0.00000000000000e+00
+0.00000000000000e+00
+0.00000000000000e+00
+0.00000000000000e+00
+0.00000000000000e+00
+0.00000000000000e+00
+0.00000000000000e+00
+0.00000000000000e+00
+0.00000000000000e+00
+0.00000000000000e+00
+0.00000000000000e+00
+0.00000000000000e+00
+0.00000000000000e+00
+0.00000000000000e+00
+0.00000000000000e+00
+0.00000000000000e+00
+0.00000000000000e+00
+0.00000000000000e+00
+0.00000000000000e+00
+0.00000000000000e+00
+0.00000000000000e+00
+0.00000000000000e+00
+0.00000000000000e+00
+0.00000000000000e+00
+0.00000000000000e+00
+0.00000000000000e+00
+0.00000000000000e+00
+0.00000000000000e+00
+0.00000000000000e+00
+0.00000000000000e+00
+0.00000000000000e+00
+0.00000000000000e+00
+0.00000000000000e+00
+0.00000000000000e+00
+0.00000000000000e+00
+0.00000000000000e+00
+0.00000000000000e+00
+0.00000000000000e+00
+0.00000000000000e+00
+0.00000000000000e+00
+0.00000000000000e+00
+0.00000000000000e+00
+0.00000000000000e+00
+0.00000000000000e+00
+0.00000000000000e+00
+0.00000000000000e+00
+0.00000000000000e+00
+0.00000000000000e+00
+0.00000000000000e+00
+0.00000000000000e+00
+0.00000000000000e+00
+0.00000000000000e+00
+0.00000000000000e+00
+0.00000000000000e+00
+0.00000000000000e+00
+0.00000000000000e+00
+0.00000000000000e+00
+0.00000000000000e+00
+0.00000000000000e+00
+0.00000000000000e+00
+0.00000000000000e+00
+0.00000000000000e+00
+0.00000000000000e+00
+0.00000000000000e+00
+0.00000000000000e+00
+0.00000000000000e+00
+0.00000000000000e+00
+0.00000000000000e+00
+0.00000000000000e+00
+0.00000000000000e+00
+0.00000000000000e+00
+0.00000000000000e+00
+0.00000000000000e+00
+0.00000000000000e+00
+0.00000000000000e+00
+0.00000000000000e+00
+0.00000000000000e+00
+0.00000000000000e+00
+2.93000000000000e+02
+2.93000000000000e+02
+2.93000000000000e+02
+2.93000000000000e+02
+2.93000000000000e+02
+2.93000000000000e+02
+2.93000000000000e+02
+2.93000000000000e+02
+2.93000000000000e+02
+2.93000000000000e+02
+2.93000000000000e+02
+2.93000000000000e+02
+2.93000000000000e+02
+2.93000000000000e+02
+2.93000000000000e+02
+2.93000000000000e+02
+2.93000000000000e+02
+2.93000000000000e+02
+2.93000000000000e+02
+2.93000000000000e+02
+2.93000000000000e+02
+2.93000000000000e+02
+2.93000000000000e+02
+2.93000000000000e+02
+2.93000000000000e+02
+2.93000000000000e+02
+2.93000000000000e+02
+2.93000000000000e+02
+2.93000000000000e+02
+2.93000000000000e+02
+2.93000000000000e+02
+2.93000000000000e+02
+2.93000000000000e+02
+2.93000000000000e+02
+2.93000000000000e+02
+2.93000000000000e+02
+2.93000000000000e+02
+2.93000000000000e+02
+2.93000000000000e+02
+2.93000000000000e+02
+2.93000000000000e+02
+2.93000000000000e+02
+2.93000000000000e+02
+2.93000000000000e+02
+2.93000000000000e+02
+2.93000000000000e+02
+2.93000000000000e+02
+2.93000000000000e+02
+2.93000000000000e+02
+2.93000000000000e+02
+2.93000000000000e+02
+2.93000000000000e+02
+2.93000000000000e+02
+2.93000000000000e+02
+2.93000000000000e+02
+2.93000000000000e+02
+2.93000000000000e+02
+2.93000000000000e+02
+2.93000000000000e+02
+2.93000000000000e+02
+2.93000000000000e+02
+2.93000000000000e+02
+2.93000000000000e+02
+2.93000000000000e+02
+2.93000000000000e+02
+2.93000000000000e+02
+2.93000000000000e+02
+2.93000000000000e+02
+2.93000000000000e+02
+2.93000000000000e+02
+2.93000000000000e+02
+2.93000000000000e+02
+2.93000000000000e+02
+2.93000000000000e+02
+2.93000000000000e+02
+2.93000000000000e+02
+2.93000000000000e+02
+2.93000000000000e+02
+2.93000000000000e+02
+2.93000000000000e+02
+2.93000000000000e+02
+2.93000000000000e+02
+2.93000000000000e+02
+2.93000000000000e+02
+2.93000000000000e+02
+2.93000000000000e+02
+2.93000000000000e+02
+2.93000000000000e+02
+2.93000000000000e+02
+2.93000000000000e+02
+2.93000000000000e+02
+2.93000000000000e+02
+2.93000000000000e+02
+2.93000000000000e+02
+2.93000000000000e+02
+2.93000000000000e+02
+2.93000000000000e+02
+2.93000000000000e+02
+2.93000000000000e+02
+2.93000000000000e+02
+2.93000000000000e+02
+2.93000000000000e+02
+2.93000000000000e+02
+2.93000000000000e+02
+2.93000000000000e+02
+2.93000000000000e+02
+2.93000000000000e+02
+2.93000000000000e+02
+2.93000000000000e+02
+2.93000000000000e+02
+2.93000000000000e+02
+2.93000000000000e+02
+2.93000000000000e+02
+2.93000000000000e+02
+2.93000000000000e+02
+2.93000000000000e+02
+2.93000000000000e+02
+2.93000000000000e+02
+2.93000000000000e+02
+2.93000000000000e+02
+2.93000000000000e+02
+2.93000000000000e+02
+2.93000000000000e+02
+2.93000000000000e+02
+2.93000000000000e+02
+2.93000000000000e+02
+2.93000000000000e+02
+2.93000000000000e+02
+2.93000000000000e+02
+2.93000000000000e+02
+2.93000000000000e+02
+2.93000000000000e+02
+2.93000000000000e+02
+2.93000000000000e+02
+2.93000000000000e+02
+2.93000000000000e+02
+2.93000000000000e+02
+2.93000000000000e+02
+2.93000000000000e+02
+1.64479999854224e-01
+4.17364677104296e-01
+1.64422709967831e-01
+1.64378313688988e-01
+1.64393415581429e-01
+1.64406347869525e-01
+1.64420410666053e-01
+1.64436961952310e-01
+1.64457100540144e-01
+1.64481176831879e-01
+1.64509005520477e-01
+1.64539597844527e-01
+1.64571491634378e-01
+1.64599967630827e-01
+1.64623853446984e-01
+1.64643389227228e-01
+1.64658978605987e-01
+1.64672103584958e-01
+1.64683510223545e-01
+1.64694301359696e-01
+1.64705623103135e-01
+1.64718559300173e-01
+1.64733595491703e-01
+1.64751100785586e-01
+1.64770877913176e-01
+1.64791993854395e-01
+1.64814065292482e-01
+1.64835476024009e-01
+1.64855432783812e-01
+1.64873442679259e-01
+1.64889174035083e-01
+1.64903267641485e-01
+1.64916319802169e-01
+1.64928881228762e-01
+1.64941718964213e-01
+1.64955191659263e-01
+1.64968981004295e-01
+1.64983177400120e-01
+1.64999518669318e-01
+1.65017469277069e-01
+1.65034998787288e-01
+1.65052064256177e-01
+1.65068608212731e-01
+1.65084643096041e-01
+1.65100723488717e-01
+1.65117402111651e-01
+1.65135137505757e-01
+1.65154021695961e-01
+1.65173484049381e-01
+1.65192690001085e-01
+1.65210895568042e-01
+1.65228183131376e-01
+1.65245256016654e-01
+1.65262126017309e-01
+1.65279014975130e-01
+1.65296065431669e-01
+1.65312769428704e-01
+1.65328687072384e-01
+1.65343838676065e-01
+1.65358472513759e-01
+1.65372351227348e-01
+1.65385614680714e-01
+1.65398730249240e-01
+1.65411202291526e-01
+1.65422510511708e-01
+1.65433054074141e-01
+1.65443112781535e-01
+1.65453043111763e-01
+1.65462150174428e-01
+1.65467950813194e-01
+1.65470322777945e-01
+1.65469798155490e-01
+1.65465584223472e-01
+1.65458556916481e-01
+1.65448714281858e-01
+1.65435261973563e-01
+1.65417858318165e-01
+1.65395608525677e-01
+1.65368324682633e-01
+1.65335819649295e-01
+1.65296893059096e-01
+1.65250445099932e-01
+1.65196377481157e-01
+1.65134544255035e-01
+1.65064494377754e-01
+1.64987370132129e-01
+1.64904677452940e-01
+1.64818346599878e-01
+1.64731116778679e-01
+1.64645994036035e-01
+1.64565176151176e-01
+1.64488621922847e-01
+1.64414314647421e-01
+1.64338669320345e-01
+1.64257448955154e-01
+1.64167105883078e-01
+1.64066251957278e-01
+1.63956128902403e-01
+1.63841075058530e-01
+1.63724983651358e-01
+1.63691024233699e-01
+1.63596974968063e-01
+1.63340047995027e-01
+1.63048019121775e-01
+1.62733296759121e-01
+1.62403998129113e-01
+1.62072149275601e-01
+1.61756897359545e-01
+1.61488920643592e-01
+1.61313866765587e-01
+1.61297467567524e-01
+1.61541203450959e-01
+1.62206168328012e-01
+1.63541322430253e-01
+1.66065822388491e-01
+1.69836718472478e-01
+1.75034975173863e-01
+1.81792115409521e-01
+1.90128294333062e-01
+1.99878004141361e-01
+2.10714991318266e-01
+2.22262395927355e-01
+2.34281927909142e-01
+2.46968677701225e-01
+2.61369642838936e-01
+2.79793450147674e-01
+3.06497110676473e-01
+3.73707465150900e-01
+5.46851480296018e-01
+8.30183807504942e-01
+1.20388970988012e+00
+1.66036144515488e+00
+2.46147216821386e+00
+1.79658233364440e+00
+5.38119452265123e-01
+4.59435308845053e-01
+4.39899017637678e-01
+4.27556978605986e-01
+4.20035113407991e-01
+2.95609539551299e+05
+2.95609539551299e+05
+2.95609539551299e+05
+2.95609539551299e+05
+2.95609539551299e+05
+2.95609539551299e+05
+2.95609539551299e+05
+2.95609539551299e+05
+2.95609539551299e+05
+2.95609539551299e+05
+2.95609539551299e+05
+2.95609539551299e+05
+2.95609539551299e+05
+2.95609539551299e+05
+2.95609539551299e+05
+2.95609539551299e+05
+2.95609539551299e+05
+2.95609539551299e+05
+2.95609539551299e+05
+2.95609539551299e+05
+2.95609539551299e+05
+2.95609539551299e+05
+2.95609539551299e+05
+2.95609539551299e+05
+2.95609539551299e+05
+2.95609539551299e+05
+2.95609539551299e+05
+2.95609539551299e+05
+2.95609539551299e+05
+2.95609539551299e+05
+2.95609539551299e+05
+2.95609539551299e+05
+2.95609539551299e+05
+2.95609539551299e+05
+2.95609539551299e+05
+2.95609539551299e+05
+2.95609539551299e+05
+2.95609539551299e+05
+2.95609539551299e+05
+2.95609539551299e+05
+2.95609539551299e+05
+2.95609539551299e+05
+2.95609539551299e+05
+2.95609539551299e+05
+2.95609539551299e+05
+2.95609539551299e+05
+2.95609539551299e+05
+2.95609539551299e+05
+2.95609539551299e+05
+2.95609539551299e+05
+2.95609539551299e+05
+2.95609539551299e+05
+2.95609539551299e+05
+2.95609539551299e+05
+2.95609539551299e+05
+2.95609539551299e+05
+2.95609539551299e+05
+2.95609539551299e+05
+2.95609539551299e+05
+2.95609539551299e+05
+2.95609539551299e+05
+2.95609539551299e+05
+2.95609539551299e+05
+2.95609539551299e+05
+2.95609539551299e+05
+2.95609539551299e+05
+2.95609539551299e+05
+2.95609539551299e+05
+2.95609539551299e+05
+2.95609539551299e+05
+2.95609539551299e+05
+2.95609539551299e+05
+2.95609539551299e+05
+2.95609539551299e+05
+2.95609539551299e+05
+2.95609539551299e+05
+2.95609539551299e+05
+2.95609539551299e+05
+2.95609539551299e+05
+2.95609539551299e+05
+2.95609539551299e+05
+2.95609539551299e+05
+2.95609539551299e+05
+2.95609539551299e+05
+2.95609539551299e+05
+2.95609539551299e+05
+2.95609539551299e+05
+2.95609539551299e+05
+2.95609539551299e+05
+2.95609539551299e+05
+2.95609539551299e+05
+2.95609539551299e+05
+2.95609539551299e+05
+2.95609539551299e+05
+2.95609539551299e+05
+2.95609539551299e+05
+2.95609539551299e+05
+2.95609539551299e+05
+2.95609539551299e+05
+2.95609539551299e+05
+2.95609539551299e+05
+2.95609539551299e+05
+2.95609539551299e+05
+2.95609539551299e+05
+2.95609539551299e+05
+2.95609539551299e+05
+2.95609539551299e+05
+2.95609539551299e+05
+2.95609539551299e+05
+2.95609539551299e+05
+2.95609539551299e+05
+2.95609539551299e+05
+2.95609539551299e+05
+2.95609539551299e+05
+2.95609539551299e+05
+2.95609539551299e+05
+2.95609539551299e+05
+2.95609539551299e+05
+2.95609539551299e+05
+2.95609539551299e+05
+2.95609539551299e+05
+2.95609539551299e+05
+2.95609539551299e+05
+2.95609539551299e+05
+2.95609539551299e+05
+2.95609539551299e+05
+2.95609539551299e+05
+2.95609539551299e+05
+2.95609539551299e+05
+2.95609539551299e+05
+2.95609539551299e+05
+2.95609539551299e+05
+2.95609539551299e+05
+2.95609539551299e+05
+2.95609539551299e+05
+2.95609539551299e+05
+2.95609539551299e+05
+2.95609539551299e+05
+2.95609539551299e+05
+0.00000000000000e+00
+0.00000000000000e+00
+0.00000000000000e+00
+0.00000000000000e+00
+0.00000000000000e+00
+0.00000000000000e+00
+0.00000000000000e+00
+0.00000000000000e+00
+0.00000000000000e+00
+0.00000000000000e+00
+0.00000000000000e+00
+0.00000000000000e+00
+0.00000000000000e+00
+0.00000000000000e+00
+0.00000000000000e+00
+0.00000000000000e+00
+0.00000000000000e+00
+0.00000000000000e+00
+0.00000000000000e+00
+0.00000000000000e+00
+0.00000000000000e+00
+0.00000000000000e+00
+0.00000000000000e+00
+0.00000000000000e+00
+0.00000000000000e+00
+0.00000000000000e+00
+0.00000000000000e+00
+0.00000000000000e+00
+0.00000000000000e+00
+0.00000000000000e+00
+0.00000000000000e+00
+0.00000000000000e+00
+0.00000000000000e+00
+0.00000000000000e+00
+0.00000000000000e+00
+0.00000000000000e+00
+0.00000000000000e+00
+0.00000000000000e+00
+0.00000000000000e+00
+0.00000000000000e+00
+0.00000000000000e+00
+0.00000000000000e+00
+0.00000000000000e+00
+0.00000000000000e+00
+0.00000000000000e+00
+0.00000000000000e+00
+0.00000000000000e+00
+0.00000000000000e+00
+0.00000000000000e+00
+0.00000000000000e+00
+0.00000000000000e+00
+0.00000000000000e+00
+0.00000000000000e+00
+0.00000000000000e+00
+0.00000000000000e+00
+0.00000000000000e+00
+0.00000000000000e+00
+0.00000000000000e+00
+0.00000000000000e+00
+0.00000000000000e+00
+0.00000000000000e+00
+0.00000000000000e+00
+0.00000000000000e+00
+0.00000000000000e+00
+0.00000000000000e+00
+0.00000000000000e+00
+0.00000000000000e+00
+0.00000000000000e+00
+0.00000000000000e+00
+0.00000000000000e+00
+0.00000000000000e+00
+0.00000000000000e+00
+0.00000000000000e+00
+0.00000000000000e+00
+0.00000000000000e+00
+0.00000000000000e+00
+0.00000000000000e+00
+0.00000000000000e+00
+0.00000000000000e+00
+0.00000000000000e+00
+0.00000000000000e+00
+0.00000000000000e+00
+0.00000000000000e+00
+0.00000000000000e+00
+0.00000000000000e+00
+0.00000000000000e+00
+0.00000000000000e+00
+0.00000000000000e+00
+0.00000000000000e+00
+0.00000000000000e+00
+0.00000000000000e+00
+0.00000000000000e+00
+0.00000000000000e+00
+0.00000000000000e+00
+0.00000000000000e+00
+0.00000000000000e+00
+0.00000000000000e+00
+0.00000000000000e+00
+0.00000000000000e+00
+0.00000000000000e+00
+0.00000000000000e+00
+0.00000000000000e+00
+0.00000000000000e+00
+0.00000000000000e+00
+0.00000000000000e+00
+0.00000000000000e+00
+0.00000000000000e+00
+0.00000000000000e+00
+0.00000000000000e+00
+0.00000000000000e+00
+0.00000000000000e+00
+0.00000000000000e+00
+0.00000000000000e+00
+0.00000000000000e+00
+0.00000000000000e+00
+0.00000000000000e+00
+0.00000000000000e+00
+0.00000000000000e+00
+0.00000000000000e+00
+0.00000000000000e+00
+0.00000000000000e+00
+0.00000000000000e+00
+0.00000000000000e+00
+0.00000000000000e+00
+0.00000000000000e+00
+0.00000000000000e+00
+0.00000000000000e+00
+0.00000000000000e+00
+0.00000000000000e+00
+0.00000000000000e+00
+0.00000000000000e+00
+0.00000000000000e+00
+0.00000000000000e+00
+0.00000000000000e+00
+0.00000000000000e+00
+0.00000000000000e+00
+0.00000000000000e+00
+0.00000000000000e+00
+0.00000000000000e+00
+0.00000000000000e+00
+0.00000000000000e+00
+0.00000000000000e+00
+0.00000000000000e+00
+0.00000000000000e+00
+0.00000000000000e+00
+0.00000000000000e+00
+0.00000000000000e+00
+0.00000000000000e+00
+0.00000000000000e+00
+0.00000000000000e+00
+0.00000000000000e+00
+0.00000000000000e+00
+0.00000000000000e+00
+0.00000000000000e+00
+0.00000000000000e+00
+0.00000000000000e+00
+0.00000000000000e+00
+0.00000000000000e+00
+0.00000000000000e+00
+0.00000000000000e+00
+0.00000000000000e+00
+0.00000000000000e+00
+0.00000000000000e+00
+0.00000000000000e+00
+0.00000000000000e+00
+0.00000000000000e+00
+0.00000000000000e+00
+0.00000000000000e+00
+0.00000000000000e+00
+0.00000000000000e+00
+0.00000000000000e+00
+0.00000000000000e+00
+0.00000000000000e+00
+0.00000000000000e+00
+0.00000000000000e+00
+0.00000000000000e+00
+0.00000000000000e+00
+0.00000000000000e+00
+0.00000000000000e+00
+0.00000000000000e+00
+0.00000000000000e+00
+0.00000000000000e+00
+0.00000000000000e+00
+0.00000000000000e+00
+0.00000000000000e+00
+0.00000000000000e+00
+0.00000000000000e+00
+0.00000000000000e+00
+0.00000000000000e+00
+0.00000000000000e+00
+0.00000000000000e+00
+0.00000000000000e+00
+0.00000000000000e+00
+0.00000000000000e+00
+0.00000000000000e+00
+0.00000000000000e+00
+0.00000000000000e+00
+0.00000000000000e+00
+0.00000000000000e+00
+0.00000000000000e+00
+0.00000000000000e+00
+0.00000000000000e+00
+0.00000000000000e+00
+0.00000000000000e+00
+0.00000000000000e+00
+0.00000000000000e+00
+0.00000000000000e+00
+0.00000000000000e+00
+0.00000000000000e+00
+0.00000000000000e+00
+0.00000000000000e+00
+0.00000000000000e+00
+0.00000000000000e+00
+0.00000000000000e+00
+0.00000000000000e+00
+0.00000000000000e+00
+0.00000000000000e+00
+0.00000000000000e+00
+0.00000000000000e+00
+0.00000000000000e+00
+0.00000000000000e+00
+0.00000000000000e+00
+0.00000000000000e+00
+0.00000000000000e+00
+0.00000000000000e+00
+0.00000000000000e+00
+0.00000000000000e+00
+0.00000000000000e+00
+0.00000000000000e+00
+0.00000000000000e+00
+0.00000000000000e+00
+0.00000000000000e+00
+0.00000000000000e+00
+0.00000000000000e+00
+0.00000000000000e+00
+0.00000000000000e+00
+0.00000000000000e+00
+0.00000000000000e+00