TITLE = Boundary data
VARIABLES =  "x0" "x1" "p" "u" "v" "T" "rho" "H" "M" "xc0" "xc1" "xc2" "xc3" "xc4"
ZONE   T= "ZONE0 Wall", N=139, E=138, ZONETYPE=FELINESEG, DATAPACKING=BLOCK, STRANDID=1, SOLUTIONTIME=5.00000000000000e+02, VARLOCATION=( [1-2]=NODAL,[3-6]=NODAL,[7-14]=NODAL)
+1.10000000000000e+00
+1.80137700000000e-02
+1.07163162050000e+00
+1.04521824960000e+00
+1.02062515790000e+00
+9.97726900530000e-01
+9.76406678040000e-01
+9.56555740000000e-01
+9.36704819320000e-01
+9.16323082120000e-01
+8.95396334290000e-01
+8.73910002150000e-01
+8.51849122350000e-01
+8.31320160150000e-01
+8.12216738500000e-01
+7.94439867200000e-01
+7.77897430000000e-01
+7.61354995270000e-01
+7.45234795260000e-01
+7.29526052700000e-01
+7.14218265420000e-01
+6.99301199290000e-01
+6.84823989550000e-01
+6.70773666230000e-01
+6.57137641830000e-01
+6.43903700000000e-01
+6.30669783380000e-01
+6.17647687050000e-01
+6.04834020630000e-01
+5.92225448030000e-01
+5.79818686550000e-01
+5.67610506010000e-01
+5.55597727970000e-01
+5.43777224830000e-01
+5.32145919060000e-01
+5.20700782410000e-01
+5.09438835080000e-01
+4.98357144950000e-01
+4.87452826860000e-01
+4.76723041810000e-01
+4.66164996260000e-01
+4.55775941360000e-01
+4.45553172270000e-01
+4.35494027450000e-01
+4.25595887940000e-01
+4.15856176710000e-01
+4.06272357990000e-01
+3.96841936580000e-01
+3.87562457220000e-01
+3.78431503960000e-01
+3.69446699500000e-01
+3.60605704610000e-01
+3.51906217500000e-01
+3.43345973200000e-01
+3.34922743020000e-01
+3.26634333920000e-01
+3.18478587980000e-01
+3.10453381810000e-01
+3.02556626000000e-01
+2.94786264610000e-01
+2.87140274570000e-01
+2.79616665220000e-01
+2.72213477740000e-01
+2.64928784690000e-01
+2.57797843450000e-01
+2.50817408920000e-01
+2.43984304490000e-01
+2.37295420580000e-01
+2.30747713260000e-01
+2.24338202820000e-01
+2.18063972470000e-01
+2.11922166960000e-01
+2.05909991320000e-01
+2.00024709550000e-01
+1.94263643420000e-01
+1.88624171220000e-01
+1.83103726550000e-01
+1.77699797220000e-01
+1.72409924020000e-01
+1.67231699680000e-01
+1.62162767720000e-01
+1.57200821390000e-01
+1.52343602640000e-01
+1.47588901070000e-01
+1.42934552950000e-01
+1.38378440200000e-01
+1.33918489440000e-01
+1.29552671070000e-01
+1.25278998310000e-01
+1.21095526330000e-01
+1.17000351330000e-01
+1.12991609710000e-01
+1.09067477190000e-01
+1.05226167990000e-01
+1.01465934040000e-01
+9.77850641540000e-02
+9.41818832550000e-02
+9.06547516300000e-02
+8.72020641710000e-02
+8.38222496510000e-02
+8.05137700000000e-02
+7.72052851670000e-02
+7.39068100290000e-02
+7.06183143040000e-02
+6.73397677990000e-02
+6.40711404120000e-02
+6.08124021340000e-02
+5.75635230450000e-02
+5.43244733180000e-02
+5.10952232130000e-02
+4.78757430830000e-02
+4.46660033680000e-02
+4.14659746000000e-02
+3.82756273980000e-02
+3.50949324710000e-02
+3.24262341680000e-02
+3.01871163650000e-02
+2.83084294680000e-02
+2.67321548970000e-02
+2.54096133230000e-02
+2.42999613330000e-02
+2.33689300800000e-02
+2.25877669750000e-02
+2.19323477340000e-02
+2.13824313620000e-02
+2.09210350560000e-02
+2.05339097370000e-02
+2.02091000000000e-02
+1.98878224150000e-02
+1.95871238660000e-02
+1.93102464880000e-02
+1.90595167480000e-02
+1.88363491970000e-02
+1.86413709150000e-02
+1.84694302330000e-02
+1.83181816420000e-02
+1.81921852220000e-02
+1.80962223910000e-02
+1.80351572710000e-02
+1.35063020000000e-01
+0.00000000000000e+00
+1.31579821070000e-01
+1.28336667020000e-01
+1.25317015130000e-01
+1.22505462730000e-01
+1.19887668640000e-01
+1.17450280000000e-01
+1.15012892550000e-01
+1.12510329000000e-01
+1.09940846540000e-01
+1.07302655730000e-01
+1.04593919320000e-01
+1.02073278810000e-01
+9.97276727340000e-02
+9.75449466160000e-02
+9.55137900000000e-02
+9.34826345760000e-02
+9.15033230530000e-02
+8.95745321480000e-02
+8.76949723570000e-02
+8.58633870880000e-02
+8.40858093860000e-02
+8.23606467440000e-02
+8.06863536080000e-02
+7.90614300000000e-02
+7.74365094810000e-02
+7.58375972200000e-02
+7.42642769330000e-02
+7.27161389990000e-02
+7.11927803510000e-02
+6.96938043770000e-02
+6.82188208090000e-02
+6.67674456300000e-02
+6.53393009660000e-02
+6.39340149930000e-02
+6.25512218380000e-02
+6.11905614830000e-02
+5.98516796750000e-02
+5.85342278280000e-02
+5.72378629380000e-02
+5.59622474890000e-02
+5.47070493690000e-02
+5.34719417810000e-02
+5.22566031580000e-02
+5.10607170820000e-02
+4.98839721960000e-02
+4.87260621310000e-02
+4.75866854180000e-02
+4.64655454140000e-02
+4.53623502270000e-02
+4.42768126330000e-02
+4.32086500070000e-02
+4.21575842480000e-02
+4.11233417060000e-02
+4.01056531100000e-02
+3.91042535010000e-02
+3.81188821590000e-02
+3.71492825380000e-02
+3.61952021970000e-02
+3.52563927380000e-02
+3.43326097360000e-02
+3.34236126800000e-02
+3.25291649090000e-02
+3.16535954860000e-02
+3.07965059620000e-02
+2.99575062980000e-02
+2.91362146850000e-02
+2.83322573770000e-02
+2.75452685110000e-02
+2.67748899500000e-02
+2.60207711140000e-02
+2.52825688220000e-02
+2.45599471390000e-02
+2.38525772170000e-02
+2.31601371500000e-02
+2.24823118260000e-02
+2.18187927850000e-02
+2.11692780770000e-02
+2.05334721220000e-02
+1.99110855830000e-02
+1.93018352270000e-02
+1.87054438010000e-02
+1.81216399010000e-02
+1.75501578530000e-02
+1.69907375910000e-02
+1.64431245360000e-02
+1.59070694840000e-02
+1.53823284910000e-02
+1.48686627590000e-02
+1.43658385330000e-02
+1.38736269900000e-02
+1.33918041370000e-02
+1.29201507100000e-02
+1.24584520700000e-02
+1.20064981100000e-02
+1.15640831590000e-02
+1.11310058830000e-02
+1.07070692020000e-02
+1.02920801910000e-02
+9.88585000000000e-03
+9.47961927560000e-03
+9.07461758690000e-03
+8.67084121560000e-03
+8.26828645440000e-03
+7.86694960750000e-03
+7.46682699000000e-03
+7.06791492850000e-03
+6.67020976030000e-03
+6.27370783410000e-03
+5.87840550950000e-03
+5.48429915710000e-03
+5.09138515870000e-03
+4.69965990670000e-03
+4.30911980470000e-03
+3.98144496270000e-03
+3.70651595660000e-03
+3.47584228650000e-03
+3.28230016880000e-03
+3.11991253550000e-03
+2.98366444790000e-03
+2.86934822170000e-03
+2.77343348430000e-03
+2.69295814700000e-03
+2.62543692890000e-03
+2.56878460460000e-03
+2.52125160790000e-03
+2.48137000000000e-03
+2.42037365300000e-03
+2.32192681100000e-03
+2.19124315440000e-03
+2.03350957080000e-03
+1.85371828800000e-03
+1.65654221500000e-03
+1.43898706010000e-03
+1.19557473600000e-03
+9.27496414520000e-04
+6.36763119340000e-04
+3.26314002040000e-04
+1.70877852892150e+04
+3.87818712381342e+05
+1.70732196813559e+04
+1.70612412507292e+04
+1.70641241781640e+04
+1.70668503262675e+04
+1.70696646247799e+04
+1.70711028500408e+04
+1.70727857554474e+04
+1.70762857579463e+04
+1.70818533073004e+04
+1.70888497317572e+04
+1.70954195816948e+04
+1.71003086222217e+04
+1.71028561771123e+04
+1.71053437961665e+04
+1.71105390037884e+04
+1.71144070667751e+04
+1.71182226800087e+04
+1.71222610566662e+04
+1.71239212174030e+04
+1.71282861338973e+04
+1.71315923649455e+04
+1.71329438099048e+04
+1.71352743089905e+04
+1.71371553318454e+04
+1.71411021104249e+04
+1.71441719993948e+04
+1.71447647083527e+04
+1.71479546635858e+04
+1.71510148562087e+04
+1.71520742090837e+04
+1.71537699610744e+04
+1.71567606009477e+04
+1.71596795779021e+04
+1.71618385167013e+04
+1.71633641628719e+04
+1.71663228660880e+04
+1.71704391836216e+04
+1.71722604431733e+04
+1.71719590328746e+04
+1.71725498071179e+04
+1.71766873577107e+04
+1.71798648955100e+04
+1.71814366696495e+04
+1.71814391026032e+04
+1.71829149292332e+04
+1.71841416028856e+04
+1.71846470229860e+04
+1.71863776624339e+04
+1.71856746744818e+04
+1.71856271691849e+04
+1.71877190927382e+04
+1.71895524062897e+04
+1.71897294014420e+04
+1.71905557109719e+04
+1.71911395945830e+04
+1.71891904719125e+04
+1.71864488834999e+04
+1.71868640267098e+04
+1.71886698811667e+04
+1.71885166501172e+04
+1.71848463217755e+04
+1.71826595691497e+04
+1.71824379260974e+04
+1.71793877834209e+04
+1.71752555065487e+04
+1.71717854506318e+04
+1.71706062289909e+04
+1.71680400001016e+04
+1.71641607595777e+04
+1.71597137912495e+04
+1.71539737078805e+04
+1.71478001135907e+04
+1.71439888350568e+04
+1.71393312744116e+04
+1.71294346595525e+04
+1.71229725532640e+04
+1.71147759382111e+04
+1.71051873405500e+04
+1.70976953707007e+04
+1.70874388335897e+04
+1.70763151038792e+04
+1.70622686415583e+04
+1.70475683234438e+04
+1.70361330715033e+04
+1.70235060387974e+04
+1.70065836047781e+04
+1.69885566946354e+04
+1.69693959676801e+04
+1.69525979052317e+04
+1.69334344923886e+04
+1.69113654796057e+04
+1.68912417594494e+04
+1.68701713709403e+04
+1.68509972606353e+04
+1.68303848424390e+04
+1.68086272228324e+04
+1.67944955030504e+04
+1.67841741955333e+04
+1.67801944157089e+04
+1.67807434975346e+04
+1.67784225219249e+04
+1.67817857073108e+04
+1.67892672326561e+04
+1.67980218354111e+04
+1.68119031485704e+04
+1.68335788740653e+04
+1.68618900628983e+04
+1.69015142934265e+04
+1.69597205883108e+04
+1.70442019766824e+04
+1.71629038998562e+04
+1.73251604044029e+04
+1.75521530704821e+04
+1.78179604838703e+04
+1.81256692864060e+04
+1.84789722585209e+04
+1.88691585419344e+04
+1.92980115173722e+04
+1.97530022430670e+04
+2.02115421037245e+04
+2.06668345794844e+04
+2.11387897342089e+04
+2.17256231215660e+04
+2.26220232905776e+04
+2.42536024352637e+04
+2.97230609130266e+04
+4.50831912061169e+04
+7.01976895499973e+04
+1.02351352408175e+05
+1.40089316084249e+05
+1.80998660846980e+05
+2.22636205177684e+05
+2.64110661757234e+05
+3.04202944771436e+05
+3.39621580519628e+05
+3.66767283666938e+05
+3.82815621083719e+05
+0.00000000000000e+00
+0.00000000000000e+00
+0.00000000000000e+00
+0.00000000000000e+00
+0.00000000000000e+00
+0.00000000000000e+00
+0.00000000000000e+00
+0.00000000000000e+00
+0.00000000000000e+00
+0.00000000000000e+00
+0.00000000000000e+00
+0.00000000000000e+00
+0.00000000000000e+00
+0.00000000000000e+00
+0.00000000000000e+00
+0.00000000000000e+00
+0.00000000000000e+00
+0.00000000000000e+00
+0.00000000000000e+00
+0.00000000000000e+00
+0.00000000000000e+00
+0.00000000000000e+00
+0.00000000000000e+00
+0.00000000000000e+00
+0.00000000000000e+00
+0.00000000000000e+00
+0.00000000000000e+00
+0.00000000000000e+00
+0.00000000000000e+00
+0.00000000000000e+00
+0.00000000000000e+00
+0.00000000000000e+00
+0.00000000000000e+00
+0.00000000000000e+00
+0.00000000000000e+00
+0.00000000000000e+00
+0.00000000000000e+00
+0.00000000000000e+00
+0.00000000000000e+00
+0.00000000000000e+00
+0.00000000000000e+00
+0.00000000000000e+00
+0.00000000000000e+00
+0.00000000000000e+00
+0.00000000000000e+00
+0.00000000000000e+00
+0.00000000000000e+00
+0.00000000000000e+00
+0.00000000000000e+00
+0.00000000000000e+00
+0.00000000000000e+00
+0.00000000000000e+00
+0.00000000000000e+00
+0.00000000000000e+00
+0.00000000000000e+00
+0.00000000000000e+00
+0.00000000000000e+00
+0.00000000000000e+00
+0.00000000000000e+00
+0.00000000000000e+00
+0.00000000000000e+00
+0.00000000000000e+00
+0.00000000000000e+00
+0.00000000000000e+00
+0.00000000000000e+00
+0.00000000000000e+00
+0.00000000000000e+00
+0.00000000000000e+00
+0.00000000000000e+00
+0.00000000000000e+00
+0.00000000000000e+00
+0.00000000000000e+00
+0.00000000000000e+00
+0.00000000000000e+00
+0.00000000000000e+00
+0.00000000000000e+00
+0.00000000000000e+00
+0.00000000000000e+00
+0.00000000000000e+00
+0.00000000000000e+00
+0.00000000000000e+00
+0.00000000000000e+00
+0.00000000000000e+00
+0.00000000000000e+00
+0.00000000000000e+00
+0.00000000000000e+00
+0.00000000000000e+00
+0.00000000000000e+00
+0.00000000000000e+00
+0.00000000000000e+00
+0.00000000000000e+00
+0.00000000000000e+00
+0.00000000000000e+00
+0.00000000000000e+00
+0.00000000000000e+00
+0.00000000000000e+00
+0.00000000000000e+00
+0.00000000000000e+00
+0.00000000000000e+00
+0.00000000000000e+00
+0.00000000000000e+00
+0.00000000000000e+00
+0.00000000000000e+00
+0.00000000000000e+00
+0.00000000000000e+00
+0.00000000000000e+00
+0.00000000000000e+00
+0.00000000000000e+00
+0.00000000000000e+00
+0.00000000000000e+00
+0.00000000000000e+00
+0.00000000000000e+00
+0.00000000000000e+00
+0.00000000000000e+00
+0.00000000000000e+00
+0.00000000000000e+00
+0.00000000000000e+00
+0.00000000000000e+00
+0.00000000000000e+00
+0.00000000000000e+00
+0.00000000000000e+00
+0.00000000000000e+00
+0.00000000000000e+00
+0.00000000000000e+00
+0.00000000000000e+00
+0.00000000000000e+00
+0.00000000000000e+00
+0.00000000000000e+00
+0.00000000000000e+00
+0.00000000000000e+00
+0.00000000000000e+00
+0.00000000000000e+00
+0.00000000000000e+00
+0.00000000000000e+00
+0.00000000000000e+00
+0.00000000000000e+00
+0.00000000000000e+00
+0.00000000000000e+00
+0.00000000000000e+00
+0.00000000000000e+00
+0.00000000000000e+00
+0.00000000000000e+00
+0.00000000000000e+00
+0.00000000000000e+00
+0.00000000000000e+00
+0.00000000000000e+00
+0.00000000000000e+00
+0.00000000000000e+00
+0.00000000000000e+00
+0.00000000000000e+00
+0.00000000000000e+00
+0.00000000000000e+00
+0.00000000000000e+00
+0.00000000000000e+00
+0.00000000000000e+00
+0.00000000000000e+00
+0.00000000000000e+00
+0.00000000000000e+00
+0.00000000000000e+00
+0.00000000000000e+00
+0.00000000000000e+00
+0.00000000000000e+00
+0.00000000000000e+00
+0.00000000000000e+00
+0.00000000000000e+00
+0.00000000000000e+00
+0.00000000000000e+00
+0.00000000000000e+00
+0.00000000000000e+00
+0.00000000000000e+00
+0.00000000000000e+00
+0.00000000000000e+00
+0.00000000000000e+00
+0.00000000000000e+00
+0.00000000000000e+00
+0.00000000000000e+00
+0.00000000000000e+00
+0.00000000000000e+00
+0.00000000000000e+00
+0.00000000000000e+00
+0.00000000000000e+00
+0.00000000000000e+00
+0.00000000000000e+00
+0.00000000000000e+00
+0.00000000000000e+00
+0.00000000000000e+00
+0.00000000000000e+00
+0.00000000000000e+00
+0.00000000000000e+00
+0.00000000000000e+00
+0.00000000000000e+00
+0.00000000000000e+00
+0.00000000000000e+00
+0.00000000000000e+00
+0.00000000000000e+00
+0.00000000000000e+00
+0.00000000000000e+00
+0.00000000000000e+00
+0.00000000000000e+00
+0.00000000000000e+00
+0.00000000000000e+00
+0.00000000000000e+00
+0.00000000000000e+00
+0.00000000000000e+00
+0.00000000000000e+00
+0.00000000000000e+00
+0.00000000000000e+00
+0.00000000000000e+00
+0.00000000000000e+00
+0.00000000000000e+00
+0.00000000000000e+00
+0.00000000000000e+00
+0.00000000000000e+00
+0.00000000000000e+00
+0.00000000000000e+00
+0.00000000000000e+00
+0.00000000000000e+00
+0.00000000000000e+00
+0.00000000000000e+00
+0.00000000000000e+00
+0.00000000000000e+00
+0.00000000000000e+00
+0.00000000000000e+00
+0.00000000000000e+00
+0.00000000000000e+00
+0.00000000000000e+00
+0.00000000000000e+00
+0.00000000000000e+00
+0.00000000000000e+00
+0.00000000000000e+00
+0.00000000000000e+00
+0.00000000000000e+00
+0.00000000000000e+00
+0.00000000000000e+00
+0.00000000000000e+00
+0.00000000000000e+00
+0.00000000000000e+00
+0.00000000000000e+00
+0.00000000000000e+00
+0.00000000000000e+00
+0.00000000000000e+00
+0.00000000000000e+00
+0.00000000000000e+00
+0.00000000000000e+00
+0.00000000000000e+00
+0.00000000000000e+00
+0.00000000000000e+00
+0.00000000000000e+00
+0.00000000000000e+00
+0.00000000000000e+00
+0.00000000000000e+00
+0.00000000000000e+00
+0.00000000000000e+00
+0.00000000000000e+00
+0.00000000000000e+00
+0.00000000000000e+00
+0.00000000000000e+00
+0.00000000000000e+00
+0.00000000000000e+00
+0.00000000000000e+00
+0.00000000000000e+00
+0.00000000000000e+00
+0.00000000000000e+00
+0.00000000000000e+00
+0.00000000000000e+00
+0.00000000000000e+00
+0.00000000000000e+00
+0.00000000000000e+00
+0.00000000000000e+00
+0.00000000000000e+00
+0.00000000000000e+00
+0.00000000000000e+00
+0.00000000000000e+00
+0.00000000000000e+00
+0.00000000000000e+00
+0.00000000000000e+00
+0.00000000000000e+00
+0.00000000000000e+00
+2.93000000000000e+02
+2.93000000000000e+02
+2.93000000000000e+02
+2.93000000000000e+02
+2.93000000000000e+02
+2.93000000000000e+02
+2.93000000000000e+02
+2.93000000000000e+02
+2.93000000000000e+02
+2.93000000000000e+02
+2.93000000000000e+02
+2.93000000000000e+02
+2.93000000000000e+02
+2.93000000000000e+02
+2.93000000000000e+02
+2.93000000000000e+02
+2.93000000000000e+02
+2.93000000000000e+02
+2.93000000000000e+02
+2.93000000000000e+02
+2.93000000000000e+02
+2.93000000000000e+02
+2.93000000000000e+02
+2.93000000000000e+02
+2.93000000000000e+02
+2.93000000000000e+02
+2.93000000000000e+02
+2.93000000000000e+02
+2.93000000000000e+02
+2.93000000000000e+02
+2.93000000000000e+02
+2.93000000000000e+02
+2.93000000000000e+02
+2.93000000000000e+02
+2.93000000000000e+02
+2.93000000000000e+02
+2.93000000000000e+02
+2.93000000000000e+02
+2.93000000000000e+02
+2.93000000000000e+02
+2.93000000000000e+02
+2.93000000000000e+02
+2.93000000000000e+02
+2.93000000000000e+02
+2.93000000000000e+02
+2.93000000000000e+02
+2.93000000000000e+02
+2.93000000000000e+02
+2.93000000000000e+02
+2.93000000000000e+02
+2.93000000000000e+02
+2.93000000000000e+02
+2.93000000000000e+02
+2.93000000000000e+02
+2.93000000000000e+02
+2.93000000000000e+02
+2.93000000000000e+02
+2.93000000000000e+02
+2.93000000000000e+02
+2.93000000000000e+02
+2.93000000000000e+02
+2.93000000000000e+02
+2.93000000000000e+02
+2.93000000000000e+02
+2.93000000000000e+02
+2.93000000000000e+02
+2.93000000000000e+02
+2.93000000000000e+02
+2.93000000000000e+02
+2.93000000000000e+02
+2.93000000000000e+02
+2.93000000000000e+02
+2.93000000000000e+02
+2.93000000000000e+02
+2.93000000000000e+02
+2.93000000000000e+02
+2.93000000000000e+02
+2.93000000000000e+02
+2.93000000000000e+02
+2.93000000000000e+02
+2.93000000000000e+02
+2.93000000000000e+02
+2.93000000000000e+02
+2.93000000000000e+02
+2.93000000000000e+02
+2.93000000000000e+02
+2.93000000000000e+02
+2.93000000000000e+02
+2.93000000000000e+02
+2.93000000000000e+02
+2.93000000000000e+02
+2.93000000000000e+02
+2.93000000000000e+02
+2.93000000000000e+02
+2.93000000000000e+02
+2.93000000000000e+02
+2.93000000000000e+02
+2.93000000000000e+02
+2.93000000000000e+02
+2.93000000000000e+02
+2.93000000000000e+02
+2.93000000000000e+02
+2.93000000000000e+02
+2.93000000000000e+02
+2.93000000000000e+02
+2.93000000000000e+02
+2.93000000000000e+02
+2.93000000000000e+02
+2.93000000000000e+02
+2.93000000000000e+02
+2.93000000000000e+02
+2.93000000000000e+02
+2.93000000000000e+02
+2.93000000000000e+02
+2.93000000000000e+02
+2.93000000000000e+02
+2.93000000000000e+02
+2.93000000000000e+02
+2.93000000000000e+02
+2.93000000000000e+02
+2.93000000000000e+02
+2.93000000000000e+02
+2.93000000000000e+02
+2.93000000000000e+02
+2.93000000000000e+02
+2.93000000000000e+02
+2.93000000000000e+02
+2.93000000000000e+02
+2.93000000000000e+02
+2.93000000000000e+02
+2.93000000000000e+02
+2.93000000000000e+02
+2.93000000000000e+02
+2.93000000000000e+02
+2.93000000000000e+02
+2.93000000000000e+02
+2.93000000000000e+02
+2.93000000000000e+02
+2.93000000000000e+02
+2.02413359533332e-01
+4.59390653231952e+00
+2.02240822626383e-01
+2.02098932127173e-01
+2.02133081843914e-01
+2.02165374431097e-01
+2.02198711203942e-01
+2.02215747701177e-01
+2.02235682557061e-01
+2.02277141836435e-01
+2.02343092241947e-01
+2.02425968387396e-01
+2.02503791544405e-01
+2.02561704673649e-01
+2.02591881734940e-01
+2.02621348826284e-01
+2.02682888657833e-01
+2.02728707797690e-01
+2.02773905644001e-01
+2.02821742234435e-01
+2.02841407668335e-01
+2.02893112286385e-01
+2.02932276246051e-01
+2.02948284787228e-01
+2.02975890713997e-01
+2.02998172370103e-01
+2.03044923935510e-01
+2.03081288305103e-01
+2.03088309239025e-01
+2.03126095853532e-01
+2.03162345365048e-01
+2.03174893929460e-01
+2.03194980959555e-01
+2.03230406583981e-01
+2.03264983325304e-01
+2.03290557034709e-01
+2.03308629076324e-01
+2.03343676395079e-01
+2.03392436234156e-01
+2.03414009964056e-01
+2.03410439608383e-01
+2.03417437624644e-01
+2.03466448979922e-01
+2.03504088503717e-01
+2.03522706954185e-01
+2.03522735773737e-01
+2.03540217677987e-01
+2.03554748240657e-01
+2.03560735194423e-01
+2.03581235483891e-01
+2.03572908240150e-01
+2.03572345516159e-01
+2.03597125396474e-01
+2.03618841912028e-01
+2.03620938508094e-01
+2.03630726557576e-01
+2.03637642950854e-01
+2.03614554618387e-01
+2.03582079133023e-01
+2.03586996711889e-01
+2.03608387960742e-01
+2.03606572862354e-01
+2.03563095988221e-01
+2.03537192810135e-01
+2.03534567337373e-01
+2.03498436872496e-01
+2.03449487987075e-01
+2.03408383439937e-01
+2.03394414970066e-01
+2.03364016705925e-01
+2.03318065162551e-01
+2.03265388599508e-01
+2.03197394442333e-01
+2.03124265131575e-01
+2.03079118631949e-01
+2.03023947497629e-01
+2.02906717146959e-01
+2.02830170267338e-01
+2.02733077264261e-01
+2.02619495531290e-01
+2.02530749402926e-01
+2.02409255593244e-01
+2.02277489453681e-01
+2.02111102085171e-01
+2.01936969467902e-01
+2.01801513191783e-01
+2.01651939676686e-01
+2.01451484985609e-01
+2.01237947222685e-01
+2.01010978832780e-01
+2.00811997385139e-01
+2.00584997179551e-01
+2.00323578690066e-01
+2.00085203164261e-01
+1.99835613878545e-01
+1.99608486956173e-01
+1.99364322557767e-01
+1.99106592676131e-01
+1.98939195390371e-01
+1.98816934342849e-01
+1.98769791861197e-01
+1.98776296009927e-01
+1.98748802893493e-01
+1.98788641505763e-01
+1.98877263913756e-01
+1.98980966560121e-01
+1.99145397654248e-01
+1.99402157459190e-01
+1.99737517644672e-01
+2.00206886464820e-01
+2.00896369127090e-01
+2.01897093407558e-01
+2.03303177030801e-01
+2.05225186444869e-01
+2.07914028056164e-01
+2.11062649754187e-01
+2.14707614354633e-01
+2.18892664687870e-01
+2.23514616282697e-01
+2.28594594175385e-01
+2.33984186787046e-01
+2.39415820676676e-01
+2.44808987668714e-01
+2.50399532423343e-01
+2.57350867275160e-01
+2.67969175418954e-01
+2.87296046071342e-01
+3.52084516114372e-01
+5.34032938503342e-01
+8.31526727004276e-01
+1.21240293830203e+00
+1.65942798457542e+00
+2.14401962530478e+00
+2.63723715396926e+00
+3.12852282668804e+00
+3.60343596252827e+00
+4.02298740998260e+00
+4.34454183485060e+00
+4.53464241467854e+00
-5.20414854685057e+03
-5.20414854685057e+03
-5.20414854685057e+03
-5.20414854685057e+03
-5.20414854685057e+03
-5.20414854685057e+03
-5.20414854685057e+03
-5.20414854685057e+03
-5.20414854685057e+03
-5.20414854685057e+03
-5.20414854685057e+03
-5.20414854685057e+03
-5.20414854685057e+03
-5.20414854685057e+03
-5.20414854685057e+03
-5.20414854685057e+03
-5.20414854685057e+03
-5.20414854685057e+03
-5.20414854685057e+03
-5.20414854685057e+03
-5.20414854685057e+03
-5.20414854685057e+03
-5.20414854685057e+03
-5.20414854685057e+03
-5.20414854685057e+03
-5.20414854685057e+03
-5.20414854685057e+03
-5.20414854685057e+03
-5.20414854685057e+03
-5.20414854685057e+03
-5.20414854685057e+03
-5.20414854685057e+03
-5.20414854685057e+03
-5.20414854685057e+03
-5.20414854685057e+03
-5.20414854685057e+03
-5.20414854685057e+03
-5.20414854685057e+03
-5.20414854685057e+03
-5.20414854685057e+03
-5.20414854685057e+03
-5.20414854685057e+03
-5.20414854685057e+03
-5.20414854685057e+03
-5.20414854685057e+03
-5.20414854685057e+03
-5.20414854685057e+03
-5.20414854685057e+03
-5.20414854685057e+03
-5.20414854685057e+03
-5.20414854685057e+03
-5.20414854685057e+03
-5.20414854685057e+03
-5.20414854685057e+03
-5.20414854685057e+03
-5.20414854685057e+03
-5.20414854685057e+03
-5.20414854685057e+03
-5.20414854685057e+03
-5.20414854685057e+03
-5.20414854685057e+03
-5.20414854685057e+03
-5.20414854685057e+03
-5.20414854685057e+03
-5.20414854685057e+03
-5.20414854685057e+03
-5.20414854685057e+03
-5.20414854685057e+03
-5.20414854685057e+03
-5.20414854685057e+03
-5.20414854685057e+03
-5.20414854685057e+03
-5.20414854685057e+03
-5.20414854685057e+03
-5.20414854685057e+03
-5.20414854685057e+03
-5.20414854685057e+03
-5.20414854685057e+03
-5.20414854685057e+03
-5.20414854685057e+03
-5.20414854685057e+03
-5.20414854685057e+03
-5.20414854685057e+03
-5.20414854685057e+03
-5.20414854685057e+03
-5.20414854685057e+03
-5.20414854685057e+03
-5.20414854685057e+03
-5.20414854685057e+03
-5.20414854685057e+03
-5.20414854685057e+03
-5.20414854685057e+03
-5.20414854685057e+03
-5.20414854685057e+03
-5.20414854685057e+03
-5.20414854685057e+03
-5.20414854685057e+03
-5.20414854685057e+03
-5.20414854685057e+03
-5.20414854685057e+03
-5.20414854685057e+03
-5.20414854685057e+03
-5.20414854685057e+03
-5.20414854685057e+03
-5.20414854685057e+03
-5.20414854685057e+03
-5.20414854685057e+03
-5.20414854685057e+03
-5.20414854685057e+03
-5.20414854685057e+03
-5.20414854685057e+03
-5.20414854685057e+03
-5.20414854685057e+03
-5.20414854685057e+03
-5.20414854685057e+03
-5.20414854685057e+03
-5.20414854685057e+03
-5.20414854685057e+03
-5.20414854685057e+03
-5.20414854685057e+03
-5.20414854685057e+03
-5.20414854685057e+03
-5.20414854685057e+03
-5.20414854685057e+03
-5.20414854685057e+03
-5.20414854685057e+03
-5.20414854685057e+03
-5.20414854685057e+03
-5.20414854685057e+03
-5.20414854685057e+03
-5.20414854685057e+03
-5.20414854685057e+03
-5.20414854685057e+03
-5.20414854685057e+03
-5.20414854685057e+03
-5.20414854685057e+03
-5.20414854685057e+03
-5.20414854685057e+03
-5.20414854685057e+03
+0.00000000000000e+00
+0.00000000000000e+00
+0.00000000000000e+00
+0.00000000000000e+00
+0.00000000000000e+00
+0.00000000000000e+00
+0.00000000000000e+00
+0.00000000000000e+00
+0.00000000000000e+00
+0.00000000000000e+00
+0.00000000000000e+00
+0.00000000000000e+00
+0.00000000000000e+00
+0.00000000000000e+00
+0.00000000000000e+00
+0.00000000000000e+00
+0.00000000000000e+00
+0.00000000000000e+00
+0.00000000000000e+00
+0.00000000000000e+00
+0.00000000000000e+00
+0.00000000000000e+00
+0.00000000000000e+00
+0.00000000000000e+00
+0.00000000000000e+00
+0.00000000000000e+00
+0.00000000000000e+00
+0.00000000000000e+00
+0.00000000000000e+00
+0.00000000000000e+00
+0.00000000000000e+00
+0.00000000000000e+00
+0.00000000000000e+00
+0.00000000000000e+00
+0.00000000000000e+00
+0.00000000000000e+00
+0.00000000000000e+00
+0.00000000000000e+00
+0.00000000000000e+00
+0.00000000000000e+00
+0.00000000000000e+00
+0.00000000000000e+00
+0.00000000000000e+00
+0.00000000000000e+00
+0.00000000000000e+00
+0.00000000000000e+00
+0.00000000000000e+00
+0.00000000000000e+00
+0.00000000000000e+00
+0.00000000000000e+00
+0.00000000000000e+00
+0.00000000000000e+00
+0.00000000000000e+00
+0.00000000000000e+00
+0.00000000000000e+00
+0.00000000000000e+00
+0.00000000000000e+00
+0.00000000000000e+00
+0.00000000000000e+00
+0.00000000000000e+00
+0.00000000000000e+00
+0.00000000000000e+00
+0.00000000000000e+00
+0.00000000000000e+00
+0.00000000000000e+00
+0.00000000000000e+00
+0.00000000000000e+00
+0.00000000000000e+00
+0.00000000000000e+00
+0.00000000000000e+00
+0.00000000000000e+00
+0.00000000000000e+00
+0.00000000000000e+00
+0.00000000000000e+00
+0.00000000000000e+00
+0.00000000000000e+00
+0.00000000000000e+00
+0.00000000000000e+00
+0.00000000000000e+00
+0.00000000000000e+00
+0.00000000000000e+00
+0.00000000000000e+00
+0.00000000000000e+00
+0.00000000000000e+00
+0.00000000000000e+00
+0.00000000000000e+00
+0.00000000000000e+00
+0.00000000000000e+00
+0.00000000000000e+00
+0.00000000000000e+00
+0.00000000000000e+00
+0.00000000000000e+00
+0.00000000000000e+00
+0.00000000000000e+00
+0.00000000000000e+00
+0.00000000000000e+00
+0.00000000000000e+00
+0.00000000000000e+00
+0.00000000000000e+00
+0.00000000000000e+00
+0.00000000000000e+00
+0.00000000000000e+00
+0.00000000000000e+00
+0.00000000000000e+00
+0.00000000000000e+00
+0.00000000000000e+00
+0.00000000000000e+00
+0.00000000000000e+00
+0.00000000000000e+00
+0.00000000000000e+00
+0.00000000000000e+00
+0.00000000000000e+00
+0.00000000000000e+00
+0.00000000000000e+00
+0.00000000000000e+00
+0.00000000000000e+00
+0.00000000000000e+00
+0.00000000000000e+00
+0.00000000000000e+00
+0.00000000000000e+00
+0.00000000000000e+00
+0.00000000000000e+00
+0.00000000000000e+00
+0.00000000000000e+00
+0.00000000000000e+00
+0.00000000000000e+00
+0.00000000000000e+00
+0.00000000000000e+00
+0.00000000000000e+00
+0.00000000000000e+00
+0.00000000000000e+00
+0.00000000000000e+00
+0.00000000000000e+00
+0.00000000000000e+00
+0.00000000000000e+00
+0.00000000000000e+00
+0.00000000000000e+00
+0.00000000000000e+00
+0.00000000000000e+00
+0.00000000000000e+00
+0.00000000000000e+00
+0.00000000000000e+00
+0.00000000000000e+00
+0.00000000000000e+00
+0.00000000000000e+00
+0.00000000000000e+00
+0.00000000000000e+00
+0.00000000000000e+00
+0.00000000000000e+00
+0.00000000000000e+00
+0.00000000000000e+00
+0.00000000000000e+00
+0.00000000000000e+00
+0.00000000000000e+00
+0.00000000000000e+00
+0.00000000000000e+00
+0.00000000000000e+00
+0.00000000000000e+00
+0.00000000000000e+00
+0.00000000000000e+00
+0.00000000000000e+00
+0.00000000000000e+00
+0.00000000000000e+00
+0.00000000000000e+00
+0.00000000000000e+00
+0.00000000000000e+00
+0.00000000000000e+00
+0.00000000000000e+00
+0.00000000000000e+00
+0.00000000000000e+00
+0.00000000000000e+00
+0.00000000000000e+00
+0.00000000000000e+00
+0.00000000000000e+00
+0.00000000000000e+00
+0.00000000000000e+00
+0.00000000000000e+00
+0.00000000000000e+00
+0.00000000000000e+00
+0.00000000000000e+00
+0.00000000000000e+00
+0.00000000000000e+00
+0.00000000000000e+00
+0.00000000000000e+00
+0.00000000000000e+00
+0.00000000000000e+00
+0.00000000000000e+00
+0.00000000000000e+00
+0.00000000000000e+00
+0.00000000000000e+00
+0.00000000000000e+00
+0.00000000000000e+00
+0.00000000000000e+00
+0.00000000000000e+00
+0.00000000000000e+00
+0.00000000000000e+00
+0.00000000000000e+00
+0.00000000000000e+00
+0.00000000000000e+00
+0.00000000000000e+00
+0.00000000000000e+00
+0.00000000000000e+00
+0.00000000000000e+00
+0.00000000000000e+00
+0.00000000000000e+00
+0.00000000000000e+00
+0.00000000000000e+00
+0.00000000000000e+00
+0.00000000000000e+00
+0.00000000000000e+00
+0.00000000000000e+00
+0.00000000000000e+00
+0.00000000000000e+00
+0.00000000000000e+00
+0.00000000000000e+00
+0.00000000000000e+00
+0.00000000000000e+00
+0.00000000000000e+00
+0.00000000000000e+00
+0.00000000000000e+00
+0.00000000000000e+00
+0.00000000000000e+00
+0.00000000000000e+00
+0.00000000000000e+00
+0.00000000000000e+00
+0.00000000000000e+00
+0.00000000000000e+00
+0.00000000000000e+00
+0.00000000000000e+00
+0.00000000000000e+00
+0.00000000000000e+00
+0.00000000000000e+00
+0.00000000000000e+00
+0.00000000000000e+00
+0.00000000000000e+00
+0.00000000000000e+00
+0.00000000000000e+00
+0.00000000000000e+00