TITLE = Boundary data
VARIABLES =  "x0" "x1" "p" "u" "v" "T" "rho" "H" "M" "xc0" "xc1" "xc2" "xc3" "xc4"
ZONE   T= "ZONE0 Wall", N=139, E=138, ZONETYPE=FELINESEG, DATAPACKING=BLOCK, STRANDID=1, SOLUTIONTIME=8.91900000000000e+03, VARLOCATION=( [1-2]=NODAL,[3-6]=NODAL,[7-14]=NODAL)
+1.10000000000000e+00
+1.80137700000000e-02
+1.07163162050000e+00
+1.04521824960000e+00
+1.02062515790000e+00
+9.97726900530000e-01
+9.76406678040000e-01
+9.56555740000000e-01
+9.36704819320000e-01
+9.16323082120000e-01
+8.95396334290000e-01
+8.73910002150000e-01
+8.51849122350000e-01
+8.31320160150000e-01
+8.12216738500000e-01
+7.94439867200000e-01
+7.77897430000000e-01
+7.61354995270000e-01
+7.45234795260000e-01
+7.29526052700000e-01
+7.14218265420000e-01
+6.99301199290000e-01
+6.84823989550000e-01
+6.70773666230000e-01
+6.57137641830000e-01
+6.43903700000000e-01
+6.30669783380000e-01
+6.17647687050000e-01
+6.04834020630000e-01
+5.92225448030000e-01
+5.79818686550000e-01
+5.67610506010000e-01
+5.55597727970000e-01
+5.43777224830000e-01
+5.32145919060000e-01
+5.20700782410000e-01
+5.09438835080000e-01
+4.98357144950000e-01
+4.87452826860000e-01
+4.76723041810000e-01
+4.66164996260000e-01
+4.55775941360000e-01
+4.45553172270000e-01
+4.35494027450000e-01
+4.25595887940000e-01
+4.15856176710000e-01
+4.06272357990000e-01
+3.96841936580000e-01
+3.87562457220000e-01
+3.78431503960000e-01
+3.69446699500000e-01
+3.60605704610000e-01
+3.51906217500000e-01
+3.43345973200000e-01
+3.34922743020000e-01
+3.26634333920000e-01
+3.18478587980000e-01
+3.10453381810000e-01
+3.02556626000000e-01
+2.94786264610000e-01
+2.87140274570000e-01
+2.79616665220000e-01
+2.72213477740000e-01
+2.64928784690000e-01
+2.57797843450000e-01
+2.50817408920000e-01
+2.43984304490000e-01
+2.37295420580000e-01
+2.30747713260000e-01
+2.24338202820000e-01
+2.18063972470000e-01
+2.11922166960000e-01
+2.05909991320000e-01
+2.00024709550000e-01
+1.94263643420000e-01
+1.88624171220000e-01
+1.83103726550000e-01
+1.77699797220000e-01
+1.72409924020000e-01
+1.67231699680000e-01
+1.62162767720000e-01
+1.57200821390000e-01
+1.52343602640000e-01
+1.47588901070000e-01
+1.42934552950000e-01
+1.38378440200000e-01
+1.33918489440000e-01
+1.29552671070000e-01
+1.25278998310000e-01
+1.21095526330000e-01
+1.17000351330000e-01
+1.12991609710000e-01
+1.09067477190000e-01
+1.05226167990000e-01
+1.01465934040000e-01
+9.77850641540000e-02
+9.41818832550000e-02
+9.06547516300000e-02
+8.72020641710000e-02
+8.38222496510000e-02
+8.05137700000000e-02
+7.72052851670000e-02
+7.39068100290000e-02
+7.06183143040000e-02
+6.73397677990000e-02
+6.40711404120000e-02
+6.08124021340000e-02
+5.75635230450000e-02
+5.43244733180000e-02
+5.10952232130000e-02
+4.78757430830000e-02
+4.46660033680000e-02
+4.14659746000000e-02
+3.82756273980000e-02
+3.50949324710000e-02
+3.24262341680000e-02
+3.01871163650000e-02
+2.83084294680000e-02
+2.67321548970000e-02
+2.54096133230000e-02
+2.42999613330000e-02
+2.33689300800000e-02
+2.25877669750000e-02
+2.19323477340000e-02
+2.13824313620000e-02
+2.09210350560000e-02
+2.05339097370000e-02
+2.02091000000000e-02
+1.98878224150000e-02
+1.95871238660000e-02
+1.93102464880000e-02
+1.90595167480000e-02
+1.88363491970000e-02
+1.86413709150000e-02
+1.84694302330000e-02
+1.83181816420000e-02
+1.81921852220000e-02
+1.80962223910000e-02
+1.80351572710000e-02
+1.35063020000000e-01
+0.00000000000000e+00
+1.31579821070000e-01
+1.28336667020000e-01
+1.25317015130000e-01
+1.22505462730000e-01
+1.19887668640000e-01
+1.17450280000000e-01
+1.15012892550000e-01
+1.12510329000000e-01
+1.09940846540000e-01
+1.07302655730000e-01
+1.04593919320000e-01
+1.02073278810000e-01
+9.97276727340000e-02
+9.75449466160000e-02
+9.55137900000000e-02
+9.34826345760000e-02
+9.15033230530000e-02
+8.95745321480000e-02
+8.76949723570000e-02
+8.58633870880000e-02
+8.40858093860000e-02
+8.23606467440000e-02
+8.06863536080000e-02
+7.90614300000000e-02
+7.74365094810000e-02
+7.58375972200000e-02
+7.42642769330000e-02
+7.27161389990000e-02
+7.11927803510000e-02
+6.96938043770000e-02
+6.82188208090000e-02
+6.67674456300000e-02
+6.53393009660000e-02
+6.39340149930000e-02
+6.25512218380000e-02
+6.11905614830000e-02
+5.98516796750000e-02
+5.85342278280000e-02
+5.72378629380000e-02
+5.59622474890000e-02
+5.47070493690000e-02
+5.34719417810000e-02
+5.22566031580000e-02
+5.10607170820000e-02
+4.98839721960000e-02
+4.87260621310000e-02
+4.75866854180000e-02
+4.64655454140000e-02
+4.53623502270000e-02
+4.42768126330000e-02
+4.32086500070000e-02
+4.21575842480000e-02
+4.11233417060000e-02
+4.01056531100000e-02
+3.91042535010000e-02
+3.81188821590000e-02
+3.71492825380000e-02
+3.61952021970000e-02
+3.52563927380000e-02
+3.43326097360000e-02
+3.34236126800000e-02
+3.25291649090000e-02
+3.16535954860000e-02
+3.07965059620000e-02
+2.99575062980000e-02
+2.91362146850000e-02
+2.83322573770000e-02
+2.75452685110000e-02
+2.67748899500000e-02
+2.60207711140000e-02
+2.52825688220000e-02
+2.45599471390000e-02
+2.38525772170000e-02
+2.31601371500000e-02
+2.24823118260000e-02
+2.18187927850000e-02
+2.11692780770000e-02
+2.05334721220000e-02
+1.99110855830000e-02
+1.93018352270000e-02
+1.87054438010000e-02
+1.81216399010000e-02
+1.75501578530000e-02
+1.69907375910000e-02
+1.64431245360000e-02
+1.59070694840000e-02
+1.53823284910000e-02
+1.48686627590000e-02
+1.43658385330000e-02
+1.38736269900000e-02
+1.33918041370000e-02
+1.29201507100000e-02
+1.24584520700000e-02
+1.20064981100000e-02
+1.15640831590000e-02
+1.11310058830000e-02
+1.07070692020000e-02
+1.02920801910000e-02
+9.88585000000000e-03
+9.47961927560000e-03
+9.07461758690000e-03
+8.67084121560000e-03
+8.26828645440000e-03
+7.86694960750000e-03
+7.46682699000000e-03
+7.06791492850000e-03
+6.67020976030000e-03
+6.27370783410000e-03
+5.87840550950000e-03
+5.48429915710000e-03
+5.09138515870000e-03
+4.69965990670000e-03
+4.30911980470000e-03
+3.98144496270000e-03
+3.70651595660000e-03
+3.47584228650000e-03
+3.28230016880000e-03
+3.11991253550000e-03
+2.98366444790000e-03
+2.86934822170000e-03
+2.77343348430000e-03
+2.69295814700000e-03
+2.62543692890000e-03
+2.56878460460000e-03
+2.52125160790000e-03
+2.48137000000000e-03
+2.42037365300000e-03
+2.32192681100000e-03
+2.19124315440000e-03
+2.03350957080000e-03
+1.85371828800000e-03
+1.65654221500000e-03
+1.43898706010000e-03
+1.19557473600000e-03
+9.27496414520000e-04
+6.36763119340000e-04
+3.26314002040000e-04
+1.36584486094200e+04
+3.48562368455402e+05
+1.36417045078471e+04
+1.36317757759210e+04
+1.36354708382702e+04
+1.36343723298917e+04
+1.36356966843977e+04
+1.36357790200989e+04
+1.36347376781582e+04
+1.36342849999559e+04
+1.36341696480239e+04
+1.36336018504779e+04
+1.36326134968190e+04
+1.36312761958232e+04
+1.36290383401828e+04
+1.36273217968914e+04
+1.36268223822647e+04
+1.36257397429493e+04
+1.36261152864195e+04
+1.36274136094376e+04
+1.36274412683630e+04
+1.36287951050661e+04
+1.36292223372174e+04
+1.36282168854593e+04
+1.36274475281401e+04
+1.36261707098826e+04
+1.36265136920411e+04
+1.36270255166822e+04
+1.36266916362789e+04
+1.36281794720410e+04
+1.36292883846752e+04
+1.36287411229005e+04
+1.36279851551560e+04
+1.36275853983273e+04
+1.36270348882544e+04
+1.36261308485573e+04
+1.36252832514631e+04
+1.36259025977035e+04
+1.36275217106014e+04
+1.36276268890998e+04
+1.36258064661672e+04
+1.36239550859007e+04
+1.36241295595269e+04
+1.36237184891575e+04
+1.36227061036166e+04
+1.36213299265131e+04
+1.36211050298041e+04
+1.36207246961183e+04
+1.36196576101123e+04
+1.36190887196717e+04
+1.36173992742338e+04
+1.36167646938874e+04
+1.36177519733824e+04
+1.36188714971904e+04
+1.36190517255360e+04
+1.36193632923871e+04
+1.36193790884303e+04
+1.36180811861515e+04
+1.36167647982434e+04
+1.36174388433882e+04
+1.36189354042966e+04
+1.36189637478716e+04
+1.36165577213659e+04
+1.36149782044357e+04
+1.36139749042658e+04
+1.36106727175891e+04
+1.36065502869928e+04
+1.36028205218020e+04
+1.36004762247601e+04
+1.35968749873280e+04
+1.35920742068596e+04
+1.35862633308171e+04
+1.35787414378251e+04
+1.35701980995807e+04
+1.35627935440869e+04
+1.35542502849812e+04
+1.35419071763918e+04
+1.35325844675633e+04
+1.35224109472753e+04
+1.35119526569319e+04
+1.35032562149609e+04
+1.34916273020976e+04
+1.34775554970487e+04
+1.34591723113998e+04
+1.34393944782949e+04
+1.34225651770566e+04
+1.34054646448207e+04
+1.33848774398480e+04
+1.33615980474118e+04
+1.33341856330556e+04
+1.33051892598814e+04
+1.32711635729319e+04
+1.32323653363253e+04
+1.31920083971498e+04
+1.31461748657782e+04
+1.30957663733559e+04
+1.30369340573587e+04
+1.29700933608511e+04
+1.29019889437334e+04
+1.28263122259487e+04
+1.27346256297550e+04
+1.26308793872613e+04
+1.25174613188055e+04
+1.23935367363607e+04
+1.22569801121013e+04
+1.21050979794710e+04
+1.19407079668355e+04
+1.17649573344903e+04
+1.15763818941689e+04
+1.13800566619005e+04
+1.11868509550894e+04
+1.10135133269143e+04
+1.08835324464670e+04
+1.08158268390698e+04
+1.09134850546567e+04
+1.12047668593813e+04
+1.16726782109239e+04
+1.23261670587488e+04
+1.31267090104773e+04
+1.40254916891770e+04
+1.49649476302002e+04
+1.58975874483919e+04
+1.68061970847263e+04
+1.77114656147729e+04
+1.87111029970122e+04
+1.99659582527783e+04
+2.19054788427997e+04
+2.60255027446502e+04
+3.64242937294472e+04
+5.44549013228503e+04
+7.87782091304141e+04
+1.08146158531427e+05
+1.41853783368329e+05
+1.79100327484800e+05
+2.18578610344744e+05
+2.57676089726397e+05
+2.91875029937806e+05
+3.19196967123508e+05
+3.39859668083505e+05
+0.00000000000000e+00
+0.00000000000000e+00
+0.00000000000000e+00
+0.00000000000000e+00
+0.00000000000000e+00
+0.00000000000000e+00
+0.00000000000000e+00
+0.00000000000000e+00
+0.00000000000000e+00
+0.00000000000000e+00
+0.00000000000000e+00
+0.00000000000000e+00
+0.00000000000000e+00
+0.00000000000000e+00
+0.00000000000000e+00
+0.00000000000000e+00
+0.00000000000000e+00
+0.00000000000000e+00
+0.00000000000000e+00
+0.00000000000000e+00
+0.00000000000000e+00
+0.00000000000000e+00
+0.00000000000000e+00
+0.00000000000000e+00
+0.00000000000000e+00
+0.00000000000000e+00
+0.00000000000000e+00
+0.00000000000000e+00
+0.00000000000000e+00
+0.00000000000000e+00
+0.00000000000000e+00
+0.00000000000000e+00
+0.00000000000000e+00
+0.00000000000000e+00
+0.00000000000000e+00
+0.00000000000000e+00
+0.00000000000000e+00
+0.00000000000000e+00
+0.00000000000000e+00
+0.00000000000000e+00
+0.00000000000000e+00
+0.00000000000000e+00
+0.00000000000000e+00
+0.00000000000000e+00
+0.00000000000000e+00
+0.00000000000000e+00
+0.00000000000000e+00
+0.00000000000000e+00
+0.00000000000000e+00
+0.00000000000000e+00
+0.00000000000000e+00
+0.00000000000000e+00
+0.00000000000000e+00
+0.00000000000000e+00
+0.00000000000000e+00
+0.00000000000000e+00
+0.00000000000000e+00
+0.00000000000000e+00
+0.00000000000000e+00
+0.00000000000000e+00
+0.00000000000000e+00
+0.00000000000000e+00
+0.00000000000000e+00
+0.00000000000000e+00
+0.00000000000000e+00
+0.00000000000000e+00
+0.00000000000000e+00
+0.00000000000000e+00
+0.00000000000000e+00
+0.00000000000000e+00
+0.00000000000000e+00
+0.00000000000000e+00
+0.00000000000000e+00
+0.00000000000000e+00
+0.00000000000000e+00
+0.00000000000000e+00
+0.00000000000000e+00
+0.00000000000000e+00
+0.00000000000000e+00
+0.00000000000000e+00
+0.00000000000000e+00
+0.00000000000000e+00
+0.00000000000000e+00
+0.00000000000000e+00
+0.00000000000000e+00
+0.00000000000000e+00
+0.00000000000000e+00
+0.00000000000000e+00
+0.00000000000000e+00
+0.00000000000000e+00
+0.00000000000000e+00
+0.00000000000000e+00
+0.00000000000000e+00
+0.00000000000000e+00
+0.00000000000000e+00
+0.00000000000000e+00
+0.00000000000000e+00
+0.00000000000000e+00
+0.00000000000000e+00
+0.00000000000000e+00
+0.00000000000000e+00
+0.00000000000000e+00
+0.00000000000000e+00
+0.00000000000000e+00
+0.00000000000000e+00
+0.00000000000000e+00
+0.00000000000000e+00
+0.00000000000000e+00
+0.00000000000000e+00
+0.00000000000000e+00
+0.00000000000000e+00
+0.00000000000000e+00
+0.00000000000000e+00
+0.00000000000000e+00
+0.00000000000000e+00
+0.00000000000000e+00
+0.00000000000000e+00
+0.00000000000000e+00
+0.00000000000000e+00
+0.00000000000000e+00
+0.00000000000000e+00
+0.00000000000000e+00
+0.00000000000000e+00
+0.00000000000000e+00
+0.00000000000000e+00
+0.00000000000000e+00
+0.00000000000000e+00
+0.00000000000000e+00
+0.00000000000000e+00
+0.00000000000000e+00
+0.00000000000000e+00
+0.00000000000000e+00
+0.00000000000000e+00
+0.00000000000000e+00
+0.00000000000000e+00
+0.00000000000000e+00
+0.00000000000000e+00
+0.00000000000000e+00
+0.00000000000000e+00
+0.00000000000000e+00
+0.00000000000000e+00
+0.00000000000000e+00
+0.00000000000000e+00
+0.00000000000000e+00
+0.00000000000000e+00
+0.00000000000000e+00
+0.00000000000000e+00
+0.00000000000000e+00
+0.00000000000000e+00
+0.00000000000000e+00
+0.00000000000000e+00
+0.00000000000000e+00
+0.00000000000000e+00
+0.00000000000000e+00
+0.00000000000000e+00
+0.00000000000000e+00
+0.00000000000000e+00
+0.00000000000000e+00
+0.00000000000000e+00
+0.00000000000000e+00
+0.00000000000000e+00
+0.00000000000000e+00
+0.00000000000000e+00
+0.00000000000000e+00
+0.00000000000000e+00
+0.00000000000000e+00
+0.00000000000000e+00
+0.00000000000000e+00
+0.00000000000000e+00
+0.00000000000000e+00
+0.00000000000000e+00
+0.00000000000000e+00
+0.00000000000000e+00
+0.00000000000000e+00
+0.00000000000000e+00
+0.00000000000000e+00
+0.00000000000000e+00
+0.00000000000000e+00
+0.00000000000000e+00
+0.00000000000000e+00
+0.00000000000000e+00
+0.00000000000000e+00
+0.00000000000000e+00
+0.00000000000000e+00
+0.00000000000000e+00
+0.00000000000000e+00
+0.00000000000000e+00
+0.00000000000000e+00
+0.00000000000000e+00
+0.00000000000000e+00
+0.00000000000000e+00
+0.00000000000000e+00
+0.00000000000000e+00
+0.00000000000000e+00
+0.00000000000000e+00
+0.00000000000000e+00
+0.00000000000000e+00
+0.00000000000000e+00
+0.00000000000000e+00
+0.00000000000000e+00
+0.00000000000000e+00
+0.00000000000000e+00
+0.00000000000000e+00
+0.00000000000000e+00
+0.00000000000000e+00
+0.00000000000000e+00
+0.00000000000000e+00
+0.00000000000000e+00
+0.00000000000000e+00
+0.00000000000000e+00
+0.00000000000000e+00
+0.00000000000000e+00
+0.00000000000000e+00
+0.00000000000000e+00
+0.00000000000000e+00
+0.00000000000000e+00
+0.00000000000000e+00
+0.00000000000000e+00
+0.00000000000000e+00
+0.00000000000000e+00
+0.00000000000000e+00
+0.00000000000000e+00
+0.00000000000000e+00
+0.00000000000000e+00
+0.00000000000000e+00
+0.00000000000000e+00
+0.00000000000000e+00
+0.00000000000000e+00
+0.00000000000000e+00
+0.00000000000000e+00
+0.00000000000000e+00
+0.00000000000000e+00
+0.00000000000000e+00
+0.00000000000000e+00
+0.00000000000000e+00
+0.00000000000000e+00
+0.00000000000000e+00
+0.00000000000000e+00
+0.00000000000000e+00
+0.00000000000000e+00
+0.00000000000000e+00
+0.00000000000000e+00
+0.00000000000000e+00
+0.00000000000000e+00
+0.00000000000000e+00
+0.00000000000000e+00
+0.00000000000000e+00
+0.00000000000000e+00
+0.00000000000000e+00
+0.00000000000000e+00
+0.00000000000000e+00
+0.00000000000000e+00
+0.00000000000000e+00
+0.00000000000000e+00
+0.00000000000000e+00
+0.00000000000000e+00
+0.00000000000000e+00
+0.00000000000000e+00
+0.00000000000000e+00
+0.00000000000000e+00
+0.00000000000000e+00
+0.00000000000000e+00
+0.00000000000000e+00
+0.00000000000000e+00
+0.00000000000000e+00
+0.00000000000000e+00
+0.00000000000000e+00
+0.00000000000000e+00
+0.00000000000000e+00
+0.00000000000000e+00
+0.00000000000000e+00
+0.00000000000000e+00
+0.00000000000000e+00
+0.00000000000000e+00
+0.00000000000000e+00
+0.00000000000000e+00
+0.00000000000000e+00
+0.00000000000000e+00
+2.93000000000000e+02
+2.93000000000000e+02
+2.93000000000000e+02
+2.93000000000000e+02
+2.93000000000000e+02
+2.93000000000000e+02
+2.93000000000000e+02
+2.93000000000000e+02
+2.93000000000000e+02
+2.93000000000000e+02
+2.93000000000000e+02
+2.93000000000000e+02
+2.93000000000000e+02
+2.93000000000000e+02
+2.93000000000000e+02
+2.93000000000000e+02
+2.93000000000000e+02
+2.93000000000000e+02
+2.93000000000000e+02
+2.93000000000000e+02
+2.93000000000000e+02
+2.93000000000000e+02
+2.93000000000000e+02
+2.93000000000000e+02
+2.93000000000000e+02
+2.93000000000000e+02
+2.93000000000000e+02
+2.93000000000000e+02
+2.93000000000000e+02
+2.93000000000000e+02
+2.93000000000000e+02
+2.93000000000000e+02
+2.93000000000000e+02
+2.93000000000000e+02
+2.93000000000000e+02
+2.93000000000000e+02
+2.93000000000000e+02
+2.93000000000000e+02
+2.93000000000000e+02
+2.93000000000000e+02
+2.93000000000000e+02
+2.93000000000000e+02
+2.93000000000000e+02
+2.93000000000000e+02
+2.93000000000000e+02
+2.93000000000000e+02
+2.93000000000000e+02
+2.93000000000000e+02
+2.93000000000000e+02
+2.93000000000000e+02
+2.93000000000000e+02
+2.93000000000000e+02
+2.93000000000000e+02
+2.93000000000000e+02
+2.93000000000000e+02
+2.93000000000000e+02
+2.93000000000000e+02
+2.93000000000000e+02
+2.93000000000000e+02
+2.93000000000000e+02
+2.93000000000000e+02
+2.93000000000000e+02
+2.93000000000000e+02
+2.93000000000000e+02
+2.93000000000000e+02
+2.93000000000000e+02
+2.93000000000000e+02
+2.93000000000000e+02
+2.93000000000000e+02
+2.93000000000000e+02
+2.93000000000000e+02
+2.93000000000000e+02
+2.93000000000000e+02
+2.93000000000000e+02
+2.93000000000000e+02
+2.93000000000000e+02
+2.93000000000000e+02
+2.93000000000000e+02
+2.93000000000000e+02
+2.93000000000000e+02
+2.93000000000000e+02
+2.93000000000000e+02
+2.93000000000000e+02
+2.93000000000000e+02
+2.93000000000000e+02
+2.93000000000000e+02
+2.93000000000000e+02
+2.93000000000000e+02
+2.93000000000000e+02
+2.93000000000000e+02
+2.93000000000000e+02
+2.93000000000000e+02
+2.93000000000000e+02
+2.93000000000000e+02
+2.93000000000000e+02
+2.93000000000000e+02
+2.93000000000000e+02
+2.93000000000000e+02
+2.93000000000000e+02
+2.93000000000000e+02
+2.93000000000000e+02
+2.93000000000000e+02
+2.93000000000000e+02
+2.93000000000000e+02
+2.93000000000000e+02
+2.93000000000000e+02
+2.93000000000000e+02
+2.93000000000000e+02
+2.93000000000000e+02
+2.93000000000000e+02
+2.93000000000000e+02
+2.93000000000000e+02
+2.93000000000000e+02
+2.93000000000000e+02
+2.93000000000000e+02
+2.93000000000000e+02
+2.93000000000000e+02
+2.93000000000000e+02
+2.93000000000000e+02
+2.93000000000000e+02
+2.93000000000000e+02
+2.93000000000000e+02
+2.93000000000000e+02
+2.93000000000000e+02
+2.93000000000000e+02
+2.93000000000000e+02
+2.93000000000000e+02
+2.93000000000000e+02
+2.93000000000000e+02
+2.93000000000000e+02
+2.93000000000000e+02
+2.93000000000000e+02
+2.93000000000000e+02
+2.93000000000000e+02
+2.93000000000000e+02
+2.93000000000000e+02
+2.93000000000000e+02
+2.93000000000000e+02
+2.93000000000000e+02
+1.61791152115598e-01
+4.12889551289499e+00
+1.61592809861503e-01
+1.61475199068118e-01
+1.61518968928936e-01
+1.61505956548009e-01
+1.61521644189224e-01
+1.61522619496767e-01
+1.61510284280876e-01
+1.61504922081261e-01
+1.61503555679958e-01
+1.61496829834164e-01
+1.61485122290961e-01
+1.61469281292102e-01
+1.61442772773259e-01
+1.61422439459812e-01
+1.61416523643884e-01
+1.61403699239944e-01
+1.61408147740095e-01
+1.61423527025323e-01
+1.61423854659122e-01
+1.61439891531701e-01
+1.61444952310121e-01
+1.61433042231385e-01
+1.61423928809310e-01
+1.61408804258724e-01
+1.61412867053861e-01
+1.61418929872614e-01
+1.61414974892318e-01
+1.61432599050741e-01
+1.61445734675277e-01
+1.61439252085961e-01
+1.61430297270092e-01
+1.61425561950604e-01
+1.61419040883572e-01
+1.61408332081399e-01
+1.61398291870074e-01
+1.61405628335924e-01
+1.61424807537652e-01
+1.61426053429547e-01
+1.61404489609817e-01
+1.61382559084990e-01
+1.61384625812318e-01
+1.61379756478284e-01
+1.61367764265426e-01
+1.61351462759636e-01
+1.61348798745683e-01
+1.61344293503033e-01
+1.61331653335818e-01
+1.61324914544141e-01
+1.61304902218316e-01
+1.61297385296865e-01
+1.61309080116058e-01
+1.61322341435254e-01
+1.61324476330109e-01
+1.61328166995223e-01
+1.61328354107252e-01
+1.61312979805893e-01
+1.61297386533013e-01
+1.61305370934732e-01
+1.61323098446875e-01
+1.61323434190692e-01
+1.61294933603875e-01
+1.61276223436180e-01
+1.61264338844083e-01
+1.61225222792019e-01
+1.61176390540658e-01
+1.61132209607333e-01
+1.61104440236876e-01
+1.61061781779107e-01
+1.61004914134380e-01
+1.60936081402597e-01
+1.60846980819648e-01
+1.60745780707030e-01
+1.60658070045409e-01
+1.60556870870227e-01
+1.60410660578233e-01
+1.60300228431411e-01
+1.60179717997500e-01
+1.60055834319917e-01
+1.59952820617114e-01
+1.59815070330547e-01
+1.59648382764755e-01
+1.59430624740345e-01
+1.59196346419585e-01
+1.58996994932861e-01
+1.58794430579372e-01
+1.58550564844205e-01
+1.58274808802614e-01
+1.57950095050138e-01
+1.57606618513587e-01
+1.57203567241037e-01
+1.56743982731834e-01
+1.56265934611452e-01
+1.55723013518567e-01
+1.55125899724854e-01
+1.54429001529531e-01
+1.53637240063393e-01
+1.52830509194849e-01
+1.51934080639246e-01
+1.50848007069990e-01
+1.49619080961270e-01
+1.48275587238745e-01
+1.46807638605445e-01
+1.45190057121653e-01
+1.43390937329447e-01
+1.41443655445452e-01
+1.39361801341424e-01
+1.37128030975348e-01
+1.34802460449265e-01
+1.32513842261785e-01
+1.30460571398498e-01
+1.28920882887604e-01
+1.28118876119578e-01
+1.29275686505968e-01
+1.32726065104912e-01
+1.38268708989213e-01
+1.46009611093671e-01
+1.55492430730866e-01
+1.66138960893015e-01
+1.77267286181376e-01
+1.88314871087179e-01
+1.99077806475353e-01
+2.09801164789211e-01
+2.21642369335588e-01
+2.36506757186247e-01
+2.59481348209350e-01
+3.08285091071073e-01
+4.31463969005954e-01
+6.45045530082298e-01
+9.33167271136692e-01
+1.28104531385858e+00
+1.68032898167436e+00
+2.12153291758640e+00
+2.58917291463926e+00
+3.05230210411476e+00
+3.45740564816735e+00
+3.78104765332569e+00
+4.02580767620503e+00
-5.20414854685057e+03
-5.20414854685057e+03
-5.20414854685057e+03
-5.20414854685057e+03
-5.20414854685057e+03
-5.20414854685057e+03
-5.20414854685057e+03
-5.20414854685057e+03
-5.20414854685057e+03
-5.20414854685057e+03
-5.20414854685057e+03
-5.20414854685057e+03
-5.20414854685057e+03
-5.20414854685057e+03
-5.20414854685057e+03
-5.20414854685057e+03
-5.20414854685057e+03
-5.20414854685057e+03
-5.20414854685057e+03
-5.20414854685057e+03
-5.20414854685057e+03
-5.20414854685057e+03
-5.20414854685057e+03
-5.20414854685057e+03
-5.20414854685057e+03
-5.20414854685057e+03
-5.20414854685057e+03
-5.20414854685057e+03
-5.20414854685057e+03
-5.20414854685057e+03
-5.20414854685057e+03
-5.20414854685057e+03
-5.20414854685057e+03
-5.20414854685057e+03
-5.20414854685057e+03
-5.20414854685057e+03
-5.20414854685057e+03
-5.20414854685057e+03
-5.20414854685057e+03
-5.20414854685057e+03
-5.20414854685057e+03
-5.20414854685057e+03
-5.20414854685057e+03
-5.20414854685057e+03
-5.20414854685057e+03
-5.20414854685057e+03
-5.20414854685057e+03
-5.20414854685057e+03
-5.20414854685057e+03
-5.20414854685057e+03
-5.20414854685057e+03
-5.20414854685057e+03
-5.20414854685057e+03
-5.20414854685057e+03
-5.20414854685057e+03
-5.20414854685057e+03
-5.20414854685057e+03
-5.20414854685057e+03
-5.20414854685057e+03
-5.20414854685057e+03
-5.20414854685057e+03
-5.20414854685057e+03
-5.20414854685057e+03
-5.20414854685057e+03
-5.20414854685057e+03
-5.20414854685057e+03
-5.20414854685057e+03
-5.20414854685057e+03
-5.20414854685057e+03
-5.20414854685057e+03
-5.20414854685057e+03
-5.20414854685057e+03
-5.20414854685057e+03
-5.20414854685057e+03
-5.20414854685057e+03
-5.20414854685057e+03
-5.20414854685057e+03
-5.20414854685057e+03
-5.20414854685057e+03
-5.20414854685057e+03
-5.20414854685057e+03
-5.20414854685057e+03
-5.20414854685057e+03
-5.20414854685057e+03
-5.20414854685057e+03
-5.20414854685057e+03
-5.20414854685057e+03
-5.20414854685057e+03
-5.20414854685057e+03
-5.20414854685057e+03
-5.20414854685057e+03
-5.20414854685057e+03
-5.20414854685057e+03
-5.20414854685057e+03
-5.20414854685057e+03
-5.20414854685057e+03
-5.20414854685057e+03
-5.20414854685057e+03
-5.20414854685057e+03
-5.20414854685057e+03
-5.20414854685057e+03
-5.20414854685057e+03
-5.20414854685057e+03
-5.20414854685057e+03
-5.20414854685057e+03
-5.20414854685057e+03
-5.20414854685057e+03
-5.20414854685057e+03
-5.20414854685057e+03
-5.20414854685057e+03
-5.20414854685057e+03
-5.20414854685057e+03
-5.20414854685057e+03
-5.20414854685057e+03
-5.20414854685057e+03
-5.20414854685057e+03
-5.20414854685057e+03
-5.20414854685057e+03
-5.20414854685057e+03
-5.20414854685057e+03
-5.20414854685057e+03
-5.20414854685057e+03
-5.20414854685057e+03
-5.20414854685057e+03
-5.20414854685057e+03
-5.20414854685057e+03
-5.20414854685057e+03
-5.20414854685057e+03
-5.20414854685057e+03
-5.20414854685057e+03
-5.20414854685057e+03
-5.20414854685057e+03
-5.20414854685057e+03
-5.20414854685057e+03
-5.20414854685057e+03
-5.20414854685057e+03
-5.20414854685057e+03
-5.20414854685057e+03
-5.20414854685057e+03
+0.00000000000000e+00
+0.00000000000000e+00
+0.00000000000000e+00
+0.00000000000000e+00
+0.00000000000000e+00
+0.00000000000000e+00
+0.00000000000000e+00
+0.00000000000000e+00
+0.00000000000000e+00
+0.00000000000000e+00
+0.00000000000000e+00
+0.00000000000000e+00
+0.00000000000000e+00
+0.00000000000000e+00
+0.00000000000000e+00
+0.00000000000000e+00
+0.00000000000000e+00
+0.00000000000000e+00
+0.00000000000000e+00
+0.00000000000000e+00
+0.00000000000000e+00
+0.00000000000000e+00
+0.00000000000000e+00
+0.00000000000000e+00
+0.00000000000000e+00
+0.00000000000000e+00
+0.00000000000000e+00
+0.00000000000000e+00
+0.00000000000000e+00
+0.00000000000000e+00
+0.00000000000000e+00
+0.00000000000000e+00
+0.00000000000000e+00
+0.00000000000000e+00
+0.00000000000000e+00
+0.00000000000000e+00
+0.00000000000000e+00
+0.00000000000000e+00
+0.00000000000000e+00
+0.00000000000000e+00
+0.00000000000000e+00
+0.00000000000000e+00
+0.00000000000000e+00
+0.00000000000000e+00
+0.00000000000000e+00
+0.00000000000000e+00
+0.00000000000000e+00
+0.00000000000000e+00
+0.00000000000000e+00
+0.00000000000000e+00
+0.00000000000000e+00
+0.00000000000000e+00
+0.00000000000000e+00
+0.00000000000000e+00
+0.00000000000000e+00
+0.00000000000000e+00
+0.00000000000000e+00
+0.00000000000000e+00
+0.00000000000000e+00
+0.00000000000000e+00
+0.00000000000000e+00
+0.00000000000000e+00
+0.00000000000000e+00
+0.00000000000000e+00
+0.00000000000000e+00
+0.00000000000000e+00
+0.00000000000000e+00
+0.00000000000000e+00
+0.00000000000000e+00
+0.00000000000000e+00
+0.00000000000000e+00
+0.00000000000000e+00
+0.00000000000000e+00
+0.00000000000000e+00
+0.00000000000000e+00
+0.00000000000000e+00
+0.00000000000000e+00
+0.00000000000000e+00
+0.00000000000000e+00
+0.00000000000000e+00
+0.00000000000000e+00
+0.00000000000000e+00
+0.00000000000000e+00
+0.00000000000000e+00
+0.00000000000000e+00
+0.00000000000000e+00
+0.00000000000000e+00
+0.00000000000000e+00
+0.00000000000000e+00
+0.00000000000000e+00
+0.00000000000000e+00
+0.00000000000000e+00
+0.00000000000000e+00
+0.00000000000000e+00
+0.00000000000000e+00
+0.00000000000000e+00
+0.00000000000000e+00
+0.00000000000000e+00
+0.00000000000000e+00
+0.00000000000000e+00
+0.00000000000000e+00
+0.00000000000000e+00
+0.00000000000000e+00
+0.00000000000000e+00
+0.00000000000000e+00
+0.00000000000000e+00
+0.00000000000000e+00
+0.00000000000000e+00
+0.00000000000000e+00
+0.00000000000000e+00
+0.00000000000000e+00
+0.00000000000000e+00
+0.00000000000000e+00
+0.00000000000000e+00
+0.00000000000000e+00
+0.00000000000000e+00
+0.00000000000000e+00
+0.00000000000000e+00
+0.00000000000000e+00
+0.00000000000000e+00
+0.00000000000000e+00
+0.00000000000000e+00
+0.00000000000000e+00
+0.00000000000000e+00
+0.00000000000000e+00
+0.00000000000000e+00
+0.00000000000000e+00
+0.00000000000000e+00
+0.00000000000000e+00
+0.00000000000000e+00
+0.00000000000000e+00
+0.00000000000000e+00
+0.00000000000000e+00
+0.00000000000000e+00
+0.00000000000000e+00
+0.00000000000000e+00
+0.00000000000000e+00
+0.00000000000000e+00
+0.00000000000000e+00
+0.00000000000000e+00
+0.00000000000000e+00
+0.00000000000000e+00
+0.00000000000000e+00
+0.00000000000000e+00
+0.00000000000000e+00
+0.00000000000000e+00
+0.00000000000000e+00
+0.00000000000000e+00
+0.00000000000000e+00
+0.00000000000000e+00
+0.00000000000000e+00
+0.00000000000000e+00
+0.00000000000000e+00
+0.00000000000000e+00
+0.00000000000000e+00
+0.00000000000000e+00
+0.00000000000000e+00
+0.00000000000000e+00
+0.00000000000000e+00
+0.00000000000000e+00
+0.00000000000000e+00
+0.00000000000000e+00
+0.00000000000000e+00
+0.00000000000000e+00
+0.00000000000000e+00
+0.00000000000000e+00
+0.00000000000000e+00
+0.00000000000000e+00
+0.00000000000000e+00
+0.00000000000000e+00
+0.00000000000000e+00
+0.00000000000000e+00
+0.00000000000000e+00
+0.00000000000000e+00
+0.00000000000000e+00
+0.00000000000000e+00
+0.00000000000000e+00
+0.00000000000000e+00
+0.00000000000000e+00
+0.00000000000000e+00
+0.00000000000000e+00
+0.00000000000000e+00
+0.00000000000000e+00
+0.00000000000000e+00
+0.00000000000000e+00
+0.00000000000000e+00
+0.00000000000000e+00
+0.00000000000000e+00
+0.00000000000000e+00
+0.00000000000000e+00
+0.00000000000000e+00
+0.00000000000000e+00
+0.00000000000000e+00
+0.00000000000000e+00
+0.00000000000000e+00
+0.00000000000000e+00
+0.00000000000000e+00
+0.00000000000000e+00
+0.00000000000000e+00
+0.00000000000000e+00
+0.00000000000000e+00
+0.00000000000000e+00
+0.00000000000000e+00
+0.00000000000000e+00
+0.00000000000000e+00
+0.00000000000000e+00
+0.00000000000000e+00
+0.00000000000000e+00
+0.00000000000000e+00
+0.00000000000000e+00
+0.00000000000000e+00
+0.00000000000000e+00
+0.00000000000000e+00
+0.00000000000000e+00
+0.00000000000000e+00
+0.00000000000000e+00
+0.00000000000000e+00
+0.00000000000000e+00
+0.00000000000000e+00
+0.00000000000000e+00
+0.00000000000000e+00
+0.00000000000000e+00
+0.00000000000000e+00
+0.00000000000000e+00
+0.00000000000000e+00
+0.00000000000000e+00
+0.00000000000000e+00
+0.00000000000000e+00
+0.00000000000000e+00
+0.00000000000000e+00
+0.00000000000000e+00
+0.00000000000000e+00
+0.00000000000000e+00
+0.00000000000000e+00
+0.00000000000000e+00
+0.00000000000000e+00
+0.00000000000000e+00
+0.00000000000000e+00