TITLE = Boundary data
VARIABLES =  "x0" "x1" "p" "u" "v" "T" "rho" "H" "M" "xc0" "xc1" "xc2" "xc3" "xc4"
ZONE   T= "ZONE0 Wall", N=1013, E=1012, ZONETYPE=FELINESEG, DATAPACKING=BLOCK, STRANDID=1, SOLUTIONTIME=8.91580000000000e+04, VARLOCATION=( [1-2]=NODAL,[3-6]=NODAL,[7-14]=NODAL)
+1.10000000000000e+00
+1.80137700000000e-02
+1.09611792970000e+00
+1.09226827380000e+00
+1.08845076160000e+00
+1.08466512480000e+00
+1.08091109710000e+00
+1.07718841470000e+00
+1.07349681580000e+00
+1.06983604080000e+00
+1.06620583250000e+00
+1.06260593560000e+00
+1.05903609700000e+00
+1.05549606570000e+00
+1.05198559290000e+00
+1.04850443160000e+00
+1.04505233730000e+00
+1.04162906710000e+00
+1.03823438040000e+00
+1.03486803860000e+00
+1.03152980490000e+00
+1.02821944470000e+00
+1.02493672520000e+00
+1.02168141570000e+00
+1.01845328720000e+00
+1.01525211290000e+00
+1.01207766760000e+00
+1.00892972820000e+00
+1.00580807330000e+00
+1.00271248360000e+00
+9.99642741260000e-01
+9.96598630570000e-01
+9.93579937490000e-01
+9.90586449790000e-01
+9.87617957010000e-01
+9.84674250460000e-01
+9.81755123160000e-01
+9.78860369890000e-01
+9.75989787130000e-01
+9.73143173070000e-01
+9.70320327560000e-01
+9.67521052160000e-01
+9.64745150050000e-01
+9.61992426070000e-01
+9.59262686690000e-01
+9.56555740000000e-01
+9.53848800390000e-01
+9.51134600560000e-01
+9.48413121030000e-01
+9.45684342290000e-01
+9.42948244750000e-01
+9.40204808790000e-01
+9.37454014710000e-01
+9.34695842800000e-01
+9.31930273250000e-01
+9.29157286240000e-01
+9.26376861860000e-01
+9.23588980160000e-01
+9.20793621150000e-01
+9.17990764770000e-01
+9.15180390910000e-01
+9.12362479420000e-01
+9.09537010060000e-01
+9.06703962580000e-01
+9.03863316650000e-01
+9.01015051890000e-01
+8.98159147850000e-01
+8.95295584070000e-01
+8.92424339980000e-01
+8.89545394990000e-01
+8.86658728460000e-01
+8.83764319650000e-01
+8.80862147820000e-01
+8.77952192150000e-01
+8.75034431740000e-01
+8.72108845680000e-01
+8.69175412960000e-01
+8.66234112560000e-01
+8.63284923350000e-01
+8.60335734150000e-01
+8.57411144320000e-01
+8.54510948670000e-01
+8.51634943730000e-01
+8.48782927720000e-01
+8.45954700550000e-01
+8.43150063800000e-01
+8.40368820690000e-01
+8.37610776110000e-01
+8.34875736540000e-01
+8.32163510110000e-01
+8.29473906520000e-01
+8.26806737080000e-01
+8.24161814660000e-01
+8.21538953700000e-01
+8.18937970190000e-01
+8.16358681640000e-01
+8.13800907090000e-01
+8.11264467100000e-01
+8.08749183710000e-01
+8.06254880450000e-01
+8.03781382330000e-01
+8.01328515810000e-01
+7.98896108790000e-01
+7.96483990640000e-01
+7.94091992110000e-01
+7.91719945380000e-01
+7.89367684040000e-01
+7.87035043060000e-01
+7.84721858780000e-01
+7.82427968910000e-01
+7.80153212510000e-01
+7.77897430000000e-01
+7.75641646610000e-01
+7.73393137350000e-01
+7.71151878780000e-01
+7.68917847500000e-01
+7.66691020220000e-01
+7.64471373700000e-01
+7.62258884780000e-01
+7.60053530390000e-01
+7.57855287530000e-01
+7.55664133250000e-01
+7.53480044700000e-01
+7.51302999090000e-01
+7.49132973720000e-01
+7.46969945940000e-01
+7.44813893190000e-01
+7.42664792990000e-01
+7.40522622900000e-01
+7.38387360580000e-01
+7.36258983770000e-01
+7.34137470240000e-01
+7.32022797880000e-01
+7.29914944610000e-01
+7.27813888460000e-01
+7.25719607500000e-01
+7.23632079890000e-01
+7.21551283850000e-01
+7.19477197660000e-01
+7.17409799710000e-01
+7.15349068410000e-01
+7.13294982270000e-01
+7.11247519850000e-01
+7.09206659820000e-01
+7.07172380860000e-01
+7.05138101900000e-01
+7.03111423740000e-01
+7.01092317990000e-01
+6.99080756330000e-01
+6.97076710600000e-01
+6.95080152710000e-01
+6.93091054670000e-01
+6.91109388620000e-01
+6.89135126790000e-01
+6.87168241510000e-01
+6.85208705220000e-01
+6.83256490470000e-01
+6.81311569900000e-01
+6.79373916250000e-01
+6.77443502370000e-01
+6.75520301210000e-01
+6.73604285820000e-01
+6.71695429360000e-01
+6.69793705080000e-01
+6.67899086320000e-01
+6.66011546540000e-01
+6.64131059290000e-01
+6.62257598210000e-01
+6.60391137060000e-01
+6.58531649690000e-01
+6.56679110020000e-01
+6.54833492120000e-01
+6.52994770100000e-01
+6.51162918220000e-01
+6.49337910790000e-01
+6.47519722250000e-01
+6.45708327110000e-01
+6.43903700000000e-01
+6.42099101100000e-01
+6.40298412760000e-01
+6.38501626520000e-01
+6.36708733920000e-01
+6.34919726520000e-01
+6.33134595900000e-01
+6.31353333650000e-01
+6.29575931410000e-01
+6.27802380790000e-01
+6.26032673470000e-01
+6.24266801100000e-01
+6.22504755370000e-01
+6.20746528010000e-01
+6.18992110720000e-01
+6.17241495250000e-01
+6.15494673380000e-01
+6.13751636860000e-01
+6.12012377510000e-01
+6.10276887140000e-01
+6.08545157570000e-01
+6.06817180660000e-01
+6.05092948290000e-01
+6.03372452320000e-01
+6.01655684670000e-01
+5.99942637260000e-01
+5.98233302020000e-01
+5.96527670920000e-01
+5.94825735920000e-01
+5.93127489010000e-01
+5.91432922210000e-01
+5.89742027530000e-01
+5.88054797030000e-01
+5.86371222750000e-01
+5.84691296780000e-01
+5.83015011220000e-01
+5.81342358160000e-01
+5.79673329750000e-01
+5.78007918120000e-01
+5.76346115440000e-01
+5.74687913890000e-01
+5.73033305670000e-01
+5.71382282980000e-01
+5.69734838060000e-01
+5.68090963150000e-01
+5.66450650520000e-01
+5.64813892450000e-01
+5.63180681240000e-01
+5.61551009200000e-01
+5.59924868660000e-01
+5.58302251960000e-01
+5.56683151480000e-01
+5.55067559590000e-01
+5.53455468690000e-01
+5.51846871200000e-01
+5.50241759530000e-01
+5.48640126150000e-01
+5.47041963500000e-01
+5.45447264080000e-01
+5.43856020370000e-01
+5.42268224880000e-01
+5.40683870150000e-01
+5.39102948720000e-01
+5.37525453150000e-01
+5.35951376010000e-01
+5.34380709900000e-01
+5.32813447420000e-01
+5.31249581210000e-01
+5.29689103890000e-01
+5.28132008130000e-01
+5.26578286590000e-01
+5.25027931980000e-01
+5.23480936980000e-01
+5.21937294320000e-01
+5.20396996740000e-01
+5.18860036980000e-01
+5.17326407820000e-01
+5.15796102030000e-01
+5.14269112420000e-01
+5.12745431790000e-01
+5.11225052980000e-01
+5.09707968840000e-01
+5.08194172210000e-01
+5.06683655990000e-01
+5.05176413060000e-01
+5.03672436320000e-01
+5.02171718700000e-01
+5.00674253140000e-01
+4.99180032590000e-01
+4.97689050010000e-01
+4.96201298400000e-01
+4.94716770740000e-01
+4.93235460060000e-01
+4.91757359380000e-01
+4.90282461750000e-01
+4.88810760210000e-01
+4.87342247860000e-01
+4.85876917780000e-01
+4.84414763070000e-01
+4.82955776850000e-01
+4.81499952250000e-01
+4.80047282420000e-01
+4.78597760540000e-01
+4.77151379770000e-01
+4.75708133300000e-01
+4.74268014360000e-01
+4.72831016150000e-01
+4.71397131920000e-01
+4.69966354920000e-01
+4.68538678410000e-01
+4.67114095680000e-01
+4.65692600020000e-01
+4.64274184740000e-01
+4.62858843170000e-01
+4.61446568650000e-01
+4.60037354530000e-01
+4.58631194180000e-01
+4.57228080970000e-01
+4.55828008320000e-01
+4.54430969620000e-01
+4.53036958310000e-01
+4.51645967820000e-01
+4.50257991610000e-01
+4.48873023140000e-01
+4.47491055910000e-01
+4.46112083390000e-01
+4.44736099120000e-01
+4.43363096600000e-01
+4.41993069380000e-01
+4.40626011010000e-01
+4.39261915050000e-01
+4.37900775100000e-01
+4.36542584730000e-01
+4.35187337570000e-01
+4.33835027220000e-01
+4.32485647340000e-01
+4.31139191560000e-01
+4.29795653550000e-01
+4.28455027000000e-01
+4.27117305580000e-01
+4.25782483000000e-01
+4.24450552990000e-01
+4.23121509260000e-01
+4.21795345580000e-01
+4.20472055700000e-01
+4.19151633390000e-01
+4.17834072430000e-01
+4.16519366630000e-01
+4.15207509800000e-01
+4.13898495760000e-01
+4.12592318360000e-01
+4.11288971440000e-01
+4.09988448880000e-01
+4.08690744550000e-01
+4.07395852350000e-01
+4.06103766190000e-01
+4.04814479970000e-01
+4.03527987640000e-01
+4.02244283140000e-01
+4.00963360430000e-01
+3.99685213470000e-01
+3.98409836270000e-01
+3.97137222810000e-01
+3.95867367100000e-01
+3.94600263170000e-01
+3.93335905050000e-01
+3.92074286810000e-01
+3.90815402490000e-01
+3.89559246170000e-01
+3.88305811940000e-01
+3.87055093910000e-01
+3.85807086190000e-01
+3.84561782900000e-01
+3.83319178180000e-01
+3.82079266190000e-01
+3.80842041090000e-01
+3.79607497050000e-01
+3.78375628280000e-01
+3.77146428960000e-01
+3.75919893320000e-01
+3.74696015590000e-01
+3.73474790000000e-01
+3.72256210810000e-01
+3.71040272280000e-01
+3.69826968680000e-01
+3.68616294320000e-01
+3.67408243500000e-01
+3.66202810510000e-01
+3.64999989710000e-01
+3.63799775420000e-01
+3.62602161990000e-01
+3.61407143790000e-01
+3.60214715200000e-01
+3.59024870600000e-01
+3.57837604400000e-01
+3.56652911000000e-01
+3.55470784830000e-01
+3.54291220340000e-01
+3.53114211960000e-01
+3.51939754160000e-01
+3.50767841410000e-01
+3.49598468190000e-01
+3.48431629010000e-01
+3.47267318370000e-01
+3.46105530800000e-01
+3.44946260820000e-01
+3.43789502970000e-01
+3.42635251830000e-01
+3.41483501940000e-01
+3.40334247900000e-01
+3.39187484290000e-01
+3.38043205730000e-01
+3.36901406810000e-01
+3.35762082170000e-01
+3.34625226450000e-01
+3.33490834300000e-01
+3.32358900380000e-01
+3.31229419360000e-01
+3.30102385930000e-01
+3.28977794770000e-01
+3.27855640610000e-01
+3.26735918160000e-01
+3.25618622150000e-01
+3.24503747320000e-01
+3.23391288420000e-01
+3.22281240220000e-01
+3.21173597500000e-01
+3.20068355040000e-01
+3.18965507650000e-01
+3.17865050120000e-01
+3.16766977290000e-01
+3.15671283980000e-01
+3.14577965040000e-01
+3.13487015320000e-01
+3.12398429690000e-01
+3.11312203030000e-01
+3.10228330230000e-01
+3.09146806170000e-01
+3.08067625780000e-01
+3.06990783980000e-01
+3.05916275690000e-01
+3.04844095860000e-01
+3.03774239450000e-01
+3.02706701410000e-01
+3.01641476740000e-01
+3.00578560400000e-01
+2.99517947410000e-01
+2.98459632770000e-01
+2.97403611490000e-01
+2.96349878620000e-01
+2.95298429180000e-01
+2.94249258240000e-01
+2.93202360850000e-01
+2.92157732080000e-01
+2.91115367030000e-01
+2.90075260790000e-01
+2.89037408460000e-01
+2.88001805150000e-01
+2.86968446000000e-01
+2.85937326140000e-01
+2.84908440710000e-01
+2.83881784880000e-01
+2.82857353820000e-01
+2.81835142700000e-01
+2.80815146710000e-01
+2.79797361050000e-01
+2.78781780940000e-01
+2.77768401590000e-01
+2.76757218230000e-01
+2.75748226110000e-01
+2.74741420470000e-01
+2.73736796580000e-01
+2.72734349720000e-01
+2.71734075160000e-01
+2.70735968190000e-01
+2.69740024120000e-01
+2.68744080060000e-01
+2.67751010230000e-01
+2.66760806340000e-01
+2.65773460130000e-01
+2.64788963340000e-01
+2.63807307760000e-01
+2.62828485180000e-01
+2.61852487430000e-01
+2.60879306350000e-01
+2.59908933810000e-01
+2.58941361720000e-01
+2.57976581980000e-01
+2.57014586550000e-01
+2.56055367380000e-01
+2.55098916460000e-01
+2.54145225810000e-01
+2.53194287450000e-01
+2.52246093450000e-01
+2.51300635890000e-01
+2.50357906860000e-01
+2.49417898490000e-01
+2.48480602940000e-01
+2.47546012360000e-01
+2.46614118970000e-01
+2.45684914960000e-01
+2.44758392590000e-01
+2.43834544110000e-01
+2.42913361800000e-01
+2.41994837970000e-01
+2.41078964950000e-01
+2.40165735090000e-01
+2.39255140760000e-01
+2.38347174350000e-01
+2.37441828280000e-01
+2.36539095000000e-01
+2.35638966940000e-01
+2.34741436610000e-01
+2.33846496500000e-01
+2.32954139140000e-01
+2.32064357070000e-01
+2.31177142860000e-01
+2.30292489100000e-01
+2.29410388400000e-01
+2.28530833390000e-01
+2.27653816730000e-01
+2.26779331100000e-01
+2.25907369170000e-01
+2.25037923690000e-01
+2.24170987370000e-01
+2.23306552980000e-01
+2.22444613300000e-01
+2.21585161130000e-01
+2.20728189290000e-01
+2.19873690630000e-01
+2.19021657990000e-01
+2.18172084280000e-01
+2.17324962390000e-01
+2.16480285250000e-01
+2.15638045790000e-01
+2.14798236990000e-01
+2.13960851840000e-01
+2.13125883320000e-01
+2.12293324490000e-01
+2.11463168370000e-01
+2.10635408030000e-01
+2.09810036560000e-01
+2.08987047070000e-01
+2.08166432680000e-01
+2.07348186540000e-01
+2.06532301810000e-01
+2.05718771670000e-01
+2.04907589340000e-01
+2.04098748040000e-01
+2.03292241010000e-01
+2.02488061510000e-01
+2.01686202820000e-01
+2.00886658260000e-01
+2.00089421140000e-01
+1.99294484790000e-01
+1.98501842600000e-01
+1.97711487920000e-01
+1.96923414160000e-01
+1.96137614730000e-01
+1.95354083080000e-01
+1.94572812660000e-01
+1.93793796940000e-01
+1.93017029420000e-01
+1.92242503600000e-01
+1.91470213020000e-01
+1.90700151230000e-01
+1.89932311790000e-01
+1.89166688300000e-01
+1.88403274350000e-01
+1.87642063570000e-01
+1.86883049610000e-01
+1.86126226110000e-01
+1.85371586760000e-01
+1.84619125270000e-01
+1.83868835330000e-01
+1.83120710690000e-01
+1.82374745090000e-01
+1.81630932310000e-01
+1.80889266130000e-01
+1.80149740350000e-01
+1.79412348810000e-01
+1.78677085340000e-01
+1.77943943790000e-01
+1.77212918060000e-01
+1.76484002020000e-01
+1.75757189590000e-01
+1.75032474700000e-01
+1.74309851300000e-01
+1.73589313350000e-01
+1.72870854830000e-01
+1.72154469740000e-01
+1.71440152090000e-01
+1.70727895930000e-01
+1.70017695300000e-01
+1.69309544270000e-01
+1.68603436930000e-01
+1.67899367370000e-01
+1.67197329710000e-01
+1.66497318100000e-01
+1.65799326680000e-01
+1.65103349620000e-01
+1.64409381110000e-01
+1.63717415360000e-01
+1.63027446590000e-01
+1.62339469020000e-01
+1.61653476920000e-01
+1.60969464550000e-01
+1.60287426210000e-01
+1.59607356190000e-01
+1.58929248810000e-01
+1.58253098410000e-01
+1.57578899350000e-01
+1.56906645980000e-01
+1.56236332700000e-01
+1.55567953910000e-01
+1.54901504020000e-01
+1.54236977470000e-01
+1.53574368700000e-01
+1.52913672190000e-01
+1.52254882410000e-01
+1.51597993850000e-01
+1.50943001050000e-01
+1.50289898510000e-01
+1.49638680790000e-01
+1.48989342450000e-01
+1.48341878070000e-01
+1.47696282230000e-01
+1.47052549540000e-01
+1.46410674630000e-01
+1.45770652130000e-01
+1.45132476710000e-01
+1.44496143020000e-01
+1.43861645750000e-01
+1.43228979610000e-01
+1.42598139310000e-01
+1.41969119570000e-01
+1.41341915160000e-01
+1.40716520820000e-01
+1.40092931330000e-01
+1.39471141480000e-01
+1.38851146090000e-01
+1.38232939970000e-01
+1.37616517960000e-01
+1.37001874900000e-01
+1.36389005670000e-01
+1.35777905150000e-01
+1.35168568230000e-01
+1.34560989820000e-01
+1.33955164850000e-01
+1.33351088250000e-01
+1.32748754990000e-01
+1.32148160030000e-01
+1.31549298350000e-01
+1.30952164950000e-01
+1.30356754840000e-01
+1.29763063060000e-01
+1.29171084630000e-01
+1.28580814620000e-01
+1.27992248100000e-01
+1.27405380150000e-01
+1.26820205870000e-01
+1.26236720360000e-01
+1.25654918760000e-01
+1.25074796210000e-01
+1.24496347860000e-01
+1.23919568880000e-01
+1.23344454450000e-01
+1.22770999770000e-01
+1.22199200050000e-01
+1.21629050510000e-01
+1.21060546390000e-01
+1.20493682940000e-01
+1.19928455420000e-01
+1.19364859120000e-01
+1.18802889330000e-01
+1.18242541350000e-01
+1.17683810510000e-01
+1.17126692120000e-01
+1.16571181560000e-01
+1.16017274160000e-01
+1.15464965310000e-01
+1.14914250390000e-01
+1.14365124810000e-01
+1.13817583970000e-01
+1.13271623300000e-01
+1.12727238240000e-01
+1.12184424250000e-01
+1.11643176790000e-01
+1.11103491340000e-01
+1.10565363390000e-01
+1.10028788450000e-01
+1.09493762030000e-01
+1.08960279670000e-01
+1.08428336910000e-01
+1.07897929300000e-01
+1.07369052430000e-01
+1.06841701860000e-01
+1.06315873190000e-01
+1.05791562040000e-01
+1.05268764020000e-01
+1.04747474770000e-01
+1.04227689930000e-01
+1.03709405150000e-01
+1.03192616120000e-01
+1.02677318510000e-01
+1.02163508020000e-01
+1.01651180360000e-01
+1.01140331250000e-01
+1.00630956420000e-01
+1.00123051620000e-01
+9.96166126050000e-02
+9.91116351430000e-02
+9.86081150160000e-02
+9.81060480210000e-02
+9.76054299630000e-02
+9.71062566600000e-02
+9.66085239430000e-02
+9.61122276550000e-02
+9.56173636500000e-02
+9.51239277950000e-02
+9.46319159680000e-02
+9.41413240600000e-02
+9.36521479720000e-02
+9.31643836190000e-02
+9.26780269270000e-02
+9.21930738320000e-02
+9.17095202850000e-02
+9.12273622460000e-02
+9.07465956890000e-02
+9.02672165960000e-02
+8.97892209650000e-02
+8.93126048020000e-02
+8.88373641260000e-02
+8.83634949690000e-02
+8.78909933710000e-02
+8.74198553870000e-02
+8.69500770800000e-02
+8.64816545260000e-02
+8.60145838140000e-02
+8.55488610420000e-02
+8.50844823200000e-02
+8.46214437680000e-02
+8.41597415200000e-02
+8.36993717190000e-02
+8.32403305180000e-02
+8.27826140850000e-02
+8.23262185960000e-02
+8.18711402390000e-02
+8.14173752120000e-02
+8.09649197250000e-02
+8.05137700000000e-02
+8.00626149590000e-02
+7.96117049320000e-02
+7.91610397860000e-02
+7.87106193880000e-02
+7.82604436050000e-02
+7.78105123050000e-02
+7.73608253530000e-02
+7.69113826190000e-02
+7.64621839680000e-02
+7.60132292690000e-02
+7.55645183890000e-02
+7.51160511960000e-02
+7.46678275570000e-02
+7.42198473400000e-02
+7.37721104130000e-02
+7.33246166430000e-02
+7.28773658990000e-02
+7.24303580490000e-02
+7.19835929610000e-02
+7.15370705020000e-02
+7.10907905420000e-02
+7.06447529480000e-02
+7.01989575880000e-02
+6.97534043320000e-02
+6.93080930480000e-02
+6.88630236040000e-02
+6.84181958700000e-02
+6.79736097130000e-02
+6.75292650020000e-02
+6.70851616070000e-02
+6.66412993970000e-02
+6.61976782400000e-02
+6.57542980050000e-02
+6.53111585620000e-02
+6.48682597800000e-02
+6.44256015280000e-02
+6.39831836750000e-02
+6.35410060920000e-02
+6.30990686470000e-02
+6.26573712100000e-02
+6.22159136510000e-02
+6.17746958390000e-02
+6.13337176450000e-02
+6.08929789380000e-02
+6.04524795880000e-02
+6.00122194650000e-02
+5.95721984390000e-02
+5.91324163810000e-02
+5.86928731600000e-02
+5.82535686470000e-02
+5.78145027120000e-02
+5.73756752260000e-02
+5.69370860590000e-02
+5.64987350810000e-02
+5.60606221640000e-02
+5.56227471780000e-02
+5.51851099940000e-02
+5.47477104830000e-02
+5.43105485150000e-02
+5.38736239620000e-02
+5.34369366940000e-02
+5.30004865840000e-02
+5.25642735010000e-02
+5.21282973180000e-02
+5.16925579050000e-02
+5.12570551350000e-02
+5.08217888780000e-02
+5.03867590060000e-02
+4.99519653900000e-02
+4.95174079040000e-02
+4.90830864170000e-02
+4.86490008020000e-02
+4.82151509320000e-02
+4.77815366770000e-02
+4.73481579100000e-02
+4.69150145030000e-02
+4.64821063280000e-02
+4.60494332580000e-02
+4.56169951650000e-02
+4.51847919210000e-02
+4.47528233980000e-02
+4.43210894700000e-02
+4.38895900080000e-02
+4.34583248860000e-02
+4.30272939760000e-02
+4.25964971510000e-02
+4.21659342840000e-02
+4.17356052470000e-02
+4.13055099140000e-02
+4.08756481580000e-02
+4.04460198530000e-02
+4.00166248700000e-02
+3.95874630840000e-02
+3.91585343680000e-02
+3.87298385950000e-02
+3.83013756390000e-02
+3.78731453730000e-02
+3.74451476710000e-02
+3.70173824070000e-02
+3.65896171430000e-02
+3.61716369310000e-02
+3.57632179410000e-02
+3.53641414600000e-02
+3.49741937810000e-02
+3.45931660840000e-02
+3.42208543260000e-02
+3.38570591320000e-02
+3.35015856860000e-02
+3.31542436310000e-02
+3.28148469610000e-02
+3.24832139290000e-02
+3.21591669420000e-02
+3.18425324700000e-02
+3.15331409550000e-02
+3.12308267130000e-02
+3.09354278550000e-02
+3.06467861920000e-02
+3.03647471540000e-02
+3.00891597080000e-02
+2.98198762740000e-02
+2.95567526500000e-02
+2.92996479310000e-02
+2.90484244350000e-02
+2.88029476310000e-02
+2.85630860640000e-02
+2.83287112870000e-02
+2.80996977890000e-02
+2.78759229340000e-02
+2.76572668880000e-02
+2.74436125590000e-02
+2.72348455340000e-02
+2.70308540160000e-02
+2.68315287680000e-02
+2.66367630470000e-02
+2.64464525580000e-02
+2.62604953860000e-02
+2.60787919500000e-02
+2.59012449470000e-02
+2.57277593000000e-02
+2.55582421050000e-02
+2.53926025850000e-02
+2.52307520390000e-02
+2.50726037940000e-02
+2.49180731620000e-02
+2.47670773900000e-02
+2.46195356190000e-02
+2.44753688380000e-02
+2.43344998470000e-02
+2.41968532080000e-02
+2.40623552100000e-02
+2.39309338300000e-02
+2.38025186900000e-02
+2.36770410230000e-02
+2.35544336350000e-02
+2.34346308680000e-02
+2.33175685680000e-02
+2.32031840460000e-02
+2.30914160500000e-02
+2.29822047260000e-02
+2.28754915910000e-02
+2.27712195000000e-02
+2.26693326130000e-02
+2.25697763710000e-02
+2.24724974600000e-02
+2.23774437860000e-02
+2.22845644470000e-02
+2.21938097060000e-02
+2.21051309640000e-02
+2.20184807310000e-02
+2.19338126070000e-02
+2.18510812510000e-02
+2.17702423590000e-02
+2.16912526420000e-02
+2.16140698010000e-02
+2.15386525030000e-02
+2.14649603620000e-02
+2.13929539150000e-02
+2.13225946030000e-02
+2.12538447470000e-02
+2.11866675310000e-02
+2.11210269820000e-02
+2.10568879490000e-02
+2.09942160840000e-02
+2.09329778270000e-02
+2.08731403830000e-02
+2.08146717110000e-02
+2.07575404980000e-02
+2.07017161520000e-02
+2.06471687770000e-02
+2.05938691640000e-02
+2.05417887690000e-02
+2.04908997040000e-02
+2.04411747170000e-02
+2.03925871800000e-02
+2.03451110750000e-02
+2.02987209760000e-02
+2.02533920420000e-02
+2.02091000000000e-02
+2.01648585370000e-02
+2.01208960190000e-02
+2.00772246820000e-02
+2.00338563040000e-02
+1.99908022290000e-02
+1.99480733810000e-02
+1.99056802840000e-02
+1.98636330860000e-02
+1.98219415660000e-02
+1.97806151610000e-02
+1.97396629740000e-02
+1.96990937950000e-02
+1.96589161100000e-02
+1.96191381170000e-02
+1.95797677370000e-02
+1.95408126280000e-02
+1.95022801900000e-02
+1.94641775810000e-02
+1.94265117190000e-02
+1.93892892960000e-02
+1.93525164860000e-02
+1.93162004090000e-02
+1.92803461190000e-02
+1.92449594710000e-02
+1.92100456730000e-02
+1.91756096010000e-02
+1.91416558090000e-02
+1.91081885460000e-02
+1.90752117740000e-02
+1.90427291820000e-02
+1.90107441940000e-02
+1.89792599860000e-02
+1.89482794980000e-02
+1.89178056810000e-02
+1.88878403120000e-02
+1.88583863980000e-02
+1.88294457880000e-02
+1.88010203790000e-02
+1.87731118840000e-02
+1.87457218380000e-02
+1.87188516050000e-02
+1.86925023780000e-02
+1.86666751910000e-02
+1.86413709150000e-02
+1.86164962050000e-02
+1.85919641910000e-02
+1.85677853550000e-02
+1.85439702030000e-02
+1.85205292700000e-02
+1.84974731220000e-02
+1.84748123580000e-02
+1.84525576120000e-02
+1.84307195560000e-02
+1.84093089010000e-02
+1.83883363820000e-02
+1.83678128540000e-02
+1.83477490970000e-02
+1.83281560140000e-02
+1.83090445340000e-02
+1.82904256280000e-02
+1.82723103090000e-02
+1.82547096290000e-02
+1.82376346800000e-02
+1.82210965840000e-02
+1.82051064940000e-02
+1.81896755830000e-02
+1.81748151490000e-02
+1.81605360680000e-02
+1.81468498260000e-02
+1.81337674140000e-02
+1.81212998610000e-02
+1.81094581250000e-02
+1.80982531010000e-02
+1.80876956140000e-02
+1.80777964250000e-02
+1.80685662260000e-02
+1.80600156420000e-02
+1.80521552260000e-02
+1.80449954550000e-02
+1.80385467280000e-02
+1.80328193570000e-02
+1.80278235630000e-02
+1.80235694650000e-02
+1.80200670680000e-02
+1.80173262950000e-02
+1.80153567920000e-02
+1.80141682210000e-02
+1.35063020000000e-01
+0.00000000000000e+00
+1.34586361720000e-01
+1.34113683420000e-01
+1.33644951870000e-01
+1.33180134130000e-01
+1.32719197500000e-01
+1.32262109590000e-01
+1.31808838250000e-01
+1.31359351620000e-01
+1.30913618100000e-01
+1.30471606350000e-01
+1.30033285300000e-01
+1.29598624120000e-01
+1.29167592260000e-01
+1.28740159420000e-01
+1.28316295540000e-01
+1.27895970830000e-01
+1.27479155730000e-01
+1.27065820930000e-01
+1.26655937390000e-01
+1.26249476280000e-01
+1.25846409020000e-01
+1.25446707280000e-01
+1.25050342950000e-01
+1.24657288180000e-01
+1.24267515320000e-01
+1.23880996970000e-01
+1.23497705960000e-01
+1.23117615340000e-01
+1.22740698390000e-01
+1.22366928600000e-01
+1.21996279710000e-01
+1.21628725650000e-01
+1.21264240570000e-01
+1.20902798870000e-01
+1.20544375110000e-01
+1.20188944110000e-01
+1.19836480880000e-01
+1.19486960630000e-01
+1.19140358790000e-01
+1.18796651000000e-01
+1.18455813090000e-01
+1.18117821090000e-01
+1.17782651250000e-01
+1.17450280000000e-01
+1.17117909490000e-01
+1.16784647540000e-01
+1.16450491750000e-01
+1.16115439730000e-01
+1.15779489070000e-01
+1.15442637370000e-01
+1.15104882210000e-01
+1.14766221160000e-01
+1.14426651800000e-01
+1.14086171680000e-01
+1.13744778370000e-01
+1.13402469420000e-01
+1.13059242370000e-01
+1.12715094750000e-01
+1.12370024110000e-01
+1.12024027960000e-01
+1.11677103820000e-01
+1.11329249210000e-01
+1.10980461620000e-01
+1.10630738560000e-01
+1.10280077510000e-01
+1.09928475960000e-01
+1.09575931390000e-01
+1.09222441270000e-01
+1.08868003060000e-01
+1.08512614220000e-01
+1.08156272190000e-01
+1.07798974440000e-01
+1.07440718380000e-01
+1.07081501450000e-01
+1.06721321070000e-01
+1.06360174660000e-01
+1.05998059630000e-01
+1.05635944600000e-01
+1.05276849990000e-01
+1.04920750620000e-01
+1.04567621490000e-01
+1.04217437830000e-01
+1.03870175070000e-01
+1.03525808860000e-01
+1.03184315020000e-01
+1.02845669610000e-01
+1.02509848850000e-01
+1.02176829200000e-01
+1.01846587290000e-01
+1.01519099940000e-01
+1.01194344190000e-01
+1.00872297240000e-01
+1.00552936510000e-01
+1.00236239590000e-01
+9.99221842490000e-02
+9.96107484660000e-02
+9.93019103890000e-02
+9.89956483490000e-02
+9.86919408590000e-02
+9.83907666130000e-02
+9.80921044790000e-02
+9.77959335040000e-02
+9.75022329090000e-02
+9.72109820890000e-02
+9.69221606100000e-02
+9.66357482090000e-02
+9.63517247910000e-02
+9.60700704290000e-02
+9.57907653640000e-02
+9.55137900000000e-02
+9.52368146490000e-02
+9.49607324490000e-02
+9.46855405210000e-02
+9.44112359930000e-02
+9.41378160040000e-02
+9.38652777020000e-02
+9.35936182440000e-02
+9.33228347950000e-02
+9.30529245320000e-02
+9.27838846370000e-02
+9.25157123040000e-02
+9.22484047370000e-02
+9.19819591450000e-02
+9.17163727500000e-02
+9.14516427820000e-02
+9.11877664770000e-02
+9.09247410850000e-02
+9.06625638590000e-02
+9.04012320670000e-02
+9.01407429810000e-02
+8.98810938840000e-02
+8.96222820670000e-02
+8.93643048300000e-02
+8.91071594830000e-02
+8.88508433420000e-02
+8.85953537330000e-02
+8.83406879920000e-02
+8.80868434620000e-02
+8.78338174940000e-02
+8.75816074490000e-02
+8.73302106960000e-02
+8.70796246120000e-02
+8.68298465840000e-02
+8.65800685550000e-02
+8.63312237870000e-02
+8.60833087930000e-02
+8.58363200980000e-02
+8.55902542420000e-02
+8.53451077770000e-02
+8.51008772670000e-02
+8.48575592910000e-02
+8.46151504380000e-02
+8.43736473120000e-02
+8.41330465280000e-02
+8.38933447160000e-02
+8.36545385160000e-02
+8.34166245820000e-02
+8.31795995810000e-02
+8.29434601900000e-02
+8.27082031010000e-02
+8.24738250170000e-02
+8.22403226540000e-02
+8.20076927400000e-02
+8.17759320150000e-02
+8.15450372320000e-02
+8.13150051540000e-02
+8.10858325600000e-02
+8.08575162370000e-02
+8.06300529860000e-02
+8.04034396190000e-02
+8.01776729620000e-02
+7.99527498510000e-02
+7.97286671330000e-02
+7.95054216680000e-02
+7.92830103300000e-02
+7.90614300000000e-02
+7.88398531330000e-02
+7.86187564230000e-02
+7.83981388300000e-02
+7.81779993150000e-02
+7.79583368430000e-02
+7.77391503800000e-02
+7.75204388940000e-02
+7.73022013560000e-02
+7.70844367390000e-02
+7.68671440180000e-02
+7.66503221710000e-02
+7.64339701770000e-02
+7.62180870180000e-02
+7.60026716770000e-02
+7.57877231420000e-02
+7.55732404010000e-02
+7.53592224440000e-02
+7.51456682640000e-02
+7.49325768570000e-02
+7.47199472180000e-02
+7.45077783480000e-02
+7.42960692490000e-02
+7.40848189230000e-02
+7.38740263770000e-02
+7.36636906180000e-02
+7.34538106580000e-02
+7.32443855070000e-02
+7.30354141810000e-02
+7.28268956960000e-02
+7.26188290700000e-02
+7.24112133260000e-02
+7.22040474840000e-02
+7.19973305720000e-02
+7.17910616150000e-02
+7.15852396430000e-02
+7.13798636870000e-02
+7.11749327820000e-02
+7.09704459620000e-02
+7.07664022650000e-02
+7.05628007310000e-02
+7.03596404010000e-02
+7.01569203210000e-02
+6.99546395350000e-02
+6.97527970910000e-02
+6.95513920400000e-02
+6.93504234350000e-02
+6.91498903280000e-02
+6.89497917770000e-02
+6.87501268390000e-02
+6.85508945760000e-02
+6.83520940490000e-02
+6.81537243240000e-02
+6.79557844650000e-02
+6.77582735430000e-02
+6.75611906260000e-02
+6.73645347890000e-02
+6.71683051050000e-02
+6.69725006510000e-02
+6.67771205050000e-02
+6.65821637490000e-02
+6.63876294630000e-02
+6.61935167340000e-02
+6.59998246470000e-02
+6.58065522920000e-02
+6.56136987570000e-02
+6.54212631370000e-02
+6.52292445240000e-02
+6.50376420160000e-02
+6.48464547110000e-02
+6.46556817090000e-02
+6.44653221120000e-02
+6.42753750250000e-02
+6.40858395530000e-02
+6.38967148050000e-02
+6.37079998900000e-02
+6.35196939210000e-02
+6.33317960110000e-02
+6.31443052760000e-02
+6.29572208330000e-02
+6.27705418030000e-02
+6.25842673060000e-02
+6.23983964660000e-02
+6.22129284090000e-02
+6.20278622610000e-02
+6.18431971510000e-02
+6.16589322110000e-02
+6.14750665740000e-02
+6.12915993730000e-02
+6.11085297460000e-02
+6.09258568310000e-02
+6.07435797680000e-02
+6.05616977000000e-02
+6.03802097710000e-02
+6.01991151260000e-02
+6.00184129130000e-02
+5.98381022820000e-02
+5.96581823850000e-02
+5.94786523740000e-02
+5.92995114050000e-02
+5.91207586340000e-02
+5.89423932210000e-02
+5.87644143260000e-02
+5.85868211110000e-02
+5.84096127410000e-02
+5.82327883820000e-02
+5.80563472010000e-02
+5.78802883690000e-02
+5.77046110560000e-02
+5.75293144360000e-02
+5.73543976840000e-02
+5.71798599770000e-02
+5.70057004930000e-02
+5.68319184130000e-02
+5.66585129190000e-02
+5.64854831950000e-02
+5.63128284260000e-02
+5.61405478000000e-02
+5.59686405070000e-02
+5.57971057370000e-02
+5.56259426830000e-02
+5.54551505390000e-02
+5.52847285020000e-02
+5.51146757700000e-02
+5.49449915420000e-02
+5.47756750210000e-02
+5.46067254080000e-02
+5.44381419090000e-02
+5.42699237310000e-02
+5.41020700820000e-02
+5.39345801720000e-02
+5.37674532120000e-02
+5.36006884170000e-02
+5.34342850020000e-02
+5.32682421820000e-02
+5.31025591780000e-02
+5.29372352090000e-02
+5.27722694970000e-02
+5.26076612660000e-02
+5.24434097410000e-02
+5.22795141490000e-02
+5.21159737200000e-02
+5.19527876820000e-02
+5.17899552690000e-02
+5.16274757140000e-02
+5.14653482520000e-02
+5.13035721210000e-02
+5.11421465580000e-02
+5.09810708050000e-02
+5.08203441040000e-02
+5.06599656970000e-02
+5.04999348300000e-02
+5.03402507500000e-02
+5.01809127060000e-02
+5.00219199480000e-02
+4.98632717270000e-02
+4.97049672970000e-02
+4.95470059130000e-02
+4.93893868310000e-02
+4.92321093100000e-02