TITLE = Boundary data
VARIABLES =  "x0" "x1" "p" "u" "v" "T" "rho" "H" "M" "xc0" "xc1" "xc2" "xc3" "xc4"
ZONE   T= "ZONE0 Wall", N=139, E=138, ZONETYPE=FELINESEG, DATAPACKING=BLOCK, STRANDID=1, SOLUTIONTIME=7.21800000000000e+03, VARLOCATION=( [1-2]=NODAL,[3-6]=NODAL,[7-14]=NODAL)
+1.10000000000000e+00
+1.80137700000000e-02
+1.07163162050000e+00
+1.04521824960000e+00
+1.02062515790000e+00
+9.97726900530000e-01
+9.76406678040000e-01
+9.56555740000000e-01
+9.36704819320000e-01
+9.16323082120000e-01
+8.95396334290000e-01
+8.73910002150000e-01
+8.51849122350000e-01
+8.31320160150000e-01
+8.12216738500000e-01
+7.94439867200000e-01
+7.77897430000000e-01
+7.61354995270000e-01
+7.45234795260000e-01
+7.29526052700000e-01
+7.14218265420000e-01
+6.99301199290000e-01
+6.84823989550000e-01
+6.70773666230000e-01
+6.57137641830000e-01
+6.43903700000000e-01
+6.30669783380000e-01
+6.17647687050000e-01
+6.04834020630000e-01
+5.92225448030000e-01
+5.79818686550000e-01
+5.67610506010000e-01
+5.55597727970000e-01
+5.43777224830000e-01
+5.32145919060000e-01
+5.20700782410000e-01
+5.09438835080000e-01
+4.98357144950000e-01
+4.87452826860000e-01
+4.76723041810000e-01
+4.66164996260000e-01
+4.55775941360000e-01
+4.45553172270000e-01
+4.35494027450000e-01
+4.25595887940000e-01
+4.15856176710000e-01
+4.06272357990000e-01
+3.96841936580000e-01
+3.87562457220000e-01
+3.78431503960000e-01
+3.69446699500000e-01
+3.60605704610000e-01
+3.51906217500000e-01
+3.43345973200000e-01
+3.34922743020000e-01
+3.26634333920000e-01
+3.18478587980000e-01
+3.10453381810000e-01
+3.02556626000000e-01
+2.94786264610000e-01
+2.87140274570000e-01
+2.79616665220000e-01
+2.72213477740000e-01
+2.64928784690000e-01
+2.57797843450000e-01
+2.50817408920000e-01
+2.43984304490000e-01
+2.37295420580000e-01
+2.30747713260000e-01
+2.24338202820000e-01
+2.18063972470000e-01
+2.11922166960000e-01
+2.05909991320000e-01
+2.00024709550000e-01
+1.94263643420000e-01
+1.88624171220000e-01
+1.83103726550000e-01
+1.77699797220000e-01
+1.72409924020000e-01
+1.67231699680000e-01
+1.62162767720000e-01
+1.57200821390000e-01
+1.52343602640000e-01
+1.47588901070000e-01
+1.42934552950000e-01
+1.38378440200000e-01
+1.33918489440000e-01
+1.29552671070000e-01
+1.25278998310000e-01
+1.21095526330000e-01
+1.17000351330000e-01
+1.12991609710000e-01
+1.09067477190000e-01
+1.05226167990000e-01
+1.01465934040000e-01
+9.77850641540000e-02
+9.41818832550000e-02
+9.06547516300000e-02
+8.72020641710000e-02
+8.38222496510000e-02
+8.05137700000000e-02
+7.72052851670000e-02
+7.39068100290000e-02
+7.06183143040000e-02
+6.73397677990000e-02
+6.40711404120000e-02
+6.08124021340000e-02
+5.75635230450000e-02
+5.43244733180000e-02
+5.10952232130000e-02
+4.78757430830000e-02
+4.46660033680000e-02
+4.14659746000000e-02
+3.82756273980000e-02
+3.50949324710000e-02
+3.24262341680000e-02
+3.01871163650000e-02
+2.83084294680000e-02
+2.67321548970000e-02
+2.54096133230000e-02
+2.42999613330000e-02
+2.33689300800000e-02
+2.25877669750000e-02
+2.19323477340000e-02
+2.13824313620000e-02
+2.09210350560000e-02
+2.05339097370000e-02
+2.02091000000000e-02
+1.98878224150000e-02
+1.95871238660000e-02
+1.93102464880000e-02
+1.90595167480000e-02
+1.88363491970000e-02
+1.86413709150000e-02
+1.84694302330000e-02
+1.83181816420000e-02
+1.81921852220000e-02
+1.80962223910000e-02
+1.80351572710000e-02
+1.35063020000000e-01
+0.00000000000000e+00
+1.31579821070000e-01
+1.28336667020000e-01
+1.25317015130000e-01
+1.22505462730000e-01
+1.19887668640000e-01
+1.17450280000000e-01
+1.15012892550000e-01
+1.12510329000000e-01
+1.09940846540000e-01
+1.07302655730000e-01
+1.04593919320000e-01
+1.02073278810000e-01
+9.97276727340000e-02
+9.75449466160000e-02
+9.55137900000000e-02
+9.34826345760000e-02
+9.15033230530000e-02
+8.95745321480000e-02
+8.76949723570000e-02
+8.58633870880000e-02
+8.40858093860000e-02
+8.23606467440000e-02
+8.06863536080000e-02
+7.90614300000000e-02
+7.74365094810000e-02
+7.58375972200000e-02
+7.42642769330000e-02
+7.27161389990000e-02
+7.11927803510000e-02
+6.96938043770000e-02
+6.82188208090000e-02
+6.67674456300000e-02
+6.53393009660000e-02
+6.39340149930000e-02
+6.25512218380000e-02
+6.11905614830000e-02
+5.98516796750000e-02
+5.85342278280000e-02
+5.72378629380000e-02
+5.59622474890000e-02
+5.47070493690000e-02
+5.34719417810000e-02
+5.22566031580000e-02
+5.10607170820000e-02
+4.98839721960000e-02
+4.87260621310000e-02
+4.75866854180000e-02
+4.64655454140000e-02
+4.53623502270000e-02
+4.42768126330000e-02
+4.32086500070000e-02
+4.21575842480000e-02
+4.11233417060000e-02
+4.01056531100000e-02
+3.91042535010000e-02
+3.81188821590000e-02
+3.71492825380000e-02
+3.61952021970000e-02
+3.52563927380000e-02
+3.43326097360000e-02
+3.34236126800000e-02
+3.25291649090000e-02
+3.16535954860000e-02
+3.07965059620000e-02
+2.99575062980000e-02
+2.91362146850000e-02
+2.83322573770000e-02
+2.75452685110000e-02
+2.67748899500000e-02
+2.60207711140000e-02
+2.52825688220000e-02
+2.45599471390000e-02
+2.38525772170000e-02
+2.31601371500000e-02
+2.24823118260000e-02
+2.18187927850000e-02
+2.11692780770000e-02
+2.05334721220000e-02
+1.99110855830000e-02
+1.93018352270000e-02
+1.87054438010000e-02
+1.81216399010000e-02
+1.75501578530000e-02
+1.69907375910000e-02
+1.64431245360000e-02
+1.59070694840000e-02
+1.53823284910000e-02
+1.48686627590000e-02
+1.43658385330000e-02
+1.38736269900000e-02
+1.33918041370000e-02
+1.29201507100000e-02
+1.24584520700000e-02
+1.20064981100000e-02
+1.15640831590000e-02
+1.11310058830000e-02
+1.07070692020000e-02
+1.02920801910000e-02
+9.88585000000000e-03
+9.47961927560000e-03
+9.07461758690000e-03
+8.67084121560000e-03
+8.26828645440000e-03
+7.86694960750000e-03
+7.46682699000000e-03
+7.06791492850000e-03
+6.67020976030000e-03
+6.27370783410000e-03
+5.87840550950000e-03
+5.48429915710000e-03
+5.09138515870000e-03
+4.69965990670000e-03
+4.30911980470000e-03
+3.98144496270000e-03
+3.70651595660000e-03
+3.47584228650000e-03
+3.28230016880000e-03
+3.11991253550000e-03
+2.98366444790000e-03
+2.86934822170000e-03
+2.77343348430000e-03
+2.69295814700000e-03
+2.62543692890000e-03
+2.56878460460000e-03
+2.52125160790000e-03
+2.48137000000000e-03
+2.42037365300000e-03
+2.32192681100000e-03
+2.19124315440000e-03
+2.03350957080000e-03
+1.85371828800000e-03
+1.65654221500000e-03
+1.43898706010000e-03
+1.19557473600000e-03
+9.27496414520000e-04
+6.36763119340000e-04
+3.26314002040000e-04
+1.36507761296966e+04
+3.49531205448208e+05
+1.36349247377580e+04
+1.36192420573785e+04
+1.36181682325374e+04
+1.36181702079501e+04
+1.36188437804794e+04
+1.36186462081011e+04
+1.36180752583478e+04
+1.36179196318996e+04
+1.36182384705874e+04
+1.36187906695029e+04
+1.36188970520210e+04
+1.36185328010376e+04
+1.36172508578894e+04
+1.36164370144944e+04
+1.36175451835001e+04
+1.36175821657883e+04
+1.36175325648795e+04
+1.36176724627089e+04
+1.36163987657957e+04
+1.36170772664549e+04
+1.36172488327572e+04
+1.36162772928706e+04
+1.36159990203780e+04
+1.36154035312282e+04
+1.36160699500216e+04
+1.36161695794243e+04
+1.36146516151652e+04
+1.36147871821987e+04
+1.36148850589047e+04
+1.36137240811552e+04
+1.36130254136153e+04
+1.36131746493138e+04
+1.36132581857329e+04
+1.36128804535591e+04
+1.36120679851684e+04
+1.36122104338428e+04
+1.36131058409911e+04
+1.36125649171367e+04
+1.36107121062431e+04
+1.36094205225310e+04
+1.36104621821845e+04
+1.36107978353943e+04
+1.36101330839591e+04
+1.36085080786188e+04
+1.36079323126191e+04
+1.36072370296083e+04
+1.36059903833487e+04
+1.36055586342315e+04
+1.36035466918331e+04
+1.36020748065517e+04
+1.36022405452195e+04
+1.36022971019145e+04
+1.36011528131418e+04
+1.36004026161073e+04
+1.35994266810619e+04
+1.35966738461776e+04
+1.35934305112928e+04
+1.35923698207900e+04
+1.35922320596572e+04
+1.35907106737038e+04
+1.35865902157259e+04
+1.35834617059171e+04
+1.35817817953676e+04
+1.35780841392508e+04
+1.35734962483980e+04
+1.35692361856397e+04
+1.35665111119494e+04
+1.35627026785105e+04
+1.35578773145752e+04
+1.35525138520651e+04
+1.35460021096150e+04
+1.35389531968607e+04
+1.35334309603771e+04
+1.35270252370444e+04
+1.35164427013640e+04
+1.35080423953688e+04
+1.34978824322758e+04
+1.34862747571404e+04
+1.34758227597091e+04
+1.34627621732466e+04
+1.34484618311085e+04
+1.34312372434011e+04
+1.34127431890289e+04
+1.33959368045310e+04
+1.33770888809480e+04
+1.33534588716199e+04
+1.33272386767622e+04
+1.32980569596077e+04
+1.32683330863462e+04
+1.32339478015613e+04
+1.31941357392630e+04
+1.31522472330682e+04
+1.31054892508615e+04
+1.30555520248987e+04
+1.29990306741565e+04
+1.29359126389540e+04
+1.28732332982643e+04
+1.28082783702364e+04
+1.27440704476724e+04
+1.26647246653327e+04
+1.25655511844926e+04
+1.24650649981502e+04
+1.23581067494728e+04
+1.22406862224186e+04
+1.21149508370747e+04
+1.19826219903665e+04
+1.18427790011728e+04
+1.17000334867689e+04
+1.15615768184914e+04
+1.14350792638736e+04
+1.13341837833987e+04
+1.12826040638895e+04
+1.13200789632253e+04
+1.14996401349528e+04
+1.18535064806660e+04
+1.23779849010301e+04
+1.30472026543014e+04
+1.38260898962593e+04
+1.46686553699809e+04
+1.55325204268933e+04
+1.64018960563363e+04
+1.72970521103383e+04
+1.82964483460652e+04
+1.95491072717670e+04
+2.13675669228095e+04
+2.59062204397445e+04
+3.73443758377076e+04
+5.56861642225697e+04
+7.99656771727246e+04
+1.10183867135363e+05
+1.45067647317929e+05
+1.82657572837741e+05
+2.22319417864063e+05
+2.63298562116133e+05
+3.01278717034457e+05
+3.31670760206474e+05
+3.47112020100634e+05
+0.00000000000000e+00
+0.00000000000000e+00
+0.00000000000000e+00
+0.00000000000000e+00
+0.00000000000000e+00
+0.00000000000000e+00
+0.00000000000000e+00
+0.00000000000000e+00
+0.00000000000000e+00
+0.00000000000000e+00
+0.00000000000000e+00
+0.00000000000000e+00
+0.00000000000000e+00
+0.00000000000000e+00
+0.00000000000000e+00
+0.00000000000000e+00
+0.00000000000000e+00
+0.00000000000000e+00
+0.00000000000000e+00
+0.00000000000000e+00
+0.00000000000000e+00
+0.00000000000000e+00
+0.00000000000000e+00
+0.00000000000000e+00
+0.00000000000000e+00
+0.00000000000000e+00
+0.00000000000000e+00
+0.00000000000000e+00
+0.00000000000000e+00
+0.00000000000000e+00
+0.00000000000000e+00
+0.00000000000000e+00
+0.00000000000000e+00
+0.00000000000000e+00
+0.00000000000000e+00
+0.00000000000000e+00
+0.00000000000000e+00
+0.00000000000000e+00
+0.00000000000000e+00
+0.00000000000000e+00
+0.00000000000000e+00
+0.00000000000000e+00
+0.00000000000000e+00
+0.00000000000000e+00
+0.00000000000000e+00
+0.00000000000000e+00
+0.00000000000000e+00
+0.00000000000000e+00
+0.00000000000000e+00
+0.00000000000000e+00
+0.00000000000000e+00
+0.00000000000000e+00
+0.00000000000000e+00
+0.00000000000000e+00
+0.00000000000000e+00
+0.00000000000000e+00
+0.00000000000000e+00
+0.00000000000000e+00
+0.00000000000000e+00
+0.00000000000000e+00
+0.00000000000000e+00
+0.00000000000000e+00
+0.00000000000000e+00
+0.00000000000000e+00
+0.00000000000000e+00
+0.00000000000000e+00
+0.00000000000000e+00
+0.00000000000000e+00
+0.00000000000000e+00
+0.00000000000000e+00
+0.00000000000000e+00
+0.00000000000000e+00
+0.00000000000000e+00
+0.00000000000000e+00
+0.00000000000000e+00
+0.00000000000000e+00
+0.00000000000000e+00
+0.00000000000000e+00
+0.00000000000000e+00
+0.00000000000000e+00
+0.00000000000000e+00
+0.00000000000000e+00
+0.00000000000000e+00
+0.00000000000000e+00
+0.00000000000000e+00
+0.00000000000000e+00
+0.00000000000000e+00
+0.00000000000000e+00
+0.00000000000000e+00
+0.00000000000000e+00
+0.00000000000000e+00
+0.00000000000000e+00
+0.00000000000000e+00
+0.00000000000000e+00
+0.00000000000000e+00
+0.00000000000000e+00
+0.00000000000000e+00
+0.00000000000000e+00
+0.00000000000000e+00
+0.00000000000000e+00
+0.00000000000000e+00
+0.00000000000000e+00
+0.00000000000000e+00
+0.00000000000000e+00
+0.00000000000000e+00
+0.00000000000000e+00
+0.00000000000000e+00
+0.00000000000000e+00
+0.00000000000000e+00
+0.00000000000000e+00
+0.00000000000000e+00
+0.00000000000000e+00
+0.00000000000000e+00
+0.00000000000000e+00
+0.00000000000000e+00
+0.00000000000000e+00
+0.00000000000000e+00
+0.00000000000000e+00
+0.00000000000000e+00
+0.00000000000000e+00
+0.00000000000000e+00
+0.00000000000000e+00
+0.00000000000000e+00
+0.00000000000000e+00
+0.00000000000000e+00
+0.00000000000000e+00
+0.00000000000000e+00
+0.00000000000000e+00
+0.00000000000000e+00
+0.00000000000000e+00
+0.00000000000000e+00
+0.00000000000000e+00
+0.00000000000000e+00
+0.00000000000000e+00
+0.00000000000000e+00
+0.00000000000000e+00
+0.00000000000000e+00
+0.00000000000000e+00
+0.00000000000000e+00
+0.00000000000000e+00
+0.00000000000000e+00
+0.00000000000000e+00
+0.00000000000000e+00
+0.00000000000000e+00
+0.00000000000000e+00
+0.00000000000000e+00
+0.00000000000000e+00
+0.00000000000000e+00
+0.00000000000000e+00
+0.00000000000000e+00
+0.00000000000000e+00
+0.00000000000000e+00
+0.00000000000000e+00
+0.00000000000000e+00
+0.00000000000000e+00
+0.00000000000000e+00
+0.00000000000000e+00
+0.00000000000000e+00
+0.00000000000000e+00
+0.00000000000000e+00
+0.00000000000000e+00
+0.00000000000000e+00
+0.00000000000000e+00
+0.00000000000000e+00
+0.00000000000000e+00
+0.00000000000000e+00
+0.00000000000000e+00
+0.00000000000000e+00
+0.00000000000000e+00
+0.00000000000000e+00
+0.00000000000000e+00
+0.00000000000000e+00
+0.00000000000000e+00
+0.00000000000000e+00
+0.00000000000000e+00
+0.00000000000000e+00
+0.00000000000000e+00
+0.00000000000000e+00
+0.00000000000000e+00
+0.00000000000000e+00
+0.00000000000000e+00
+0.00000000000000e+00
+0.00000000000000e+00
+0.00000000000000e+00
+0.00000000000000e+00
+0.00000000000000e+00
+0.00000000000000e+00
+0.00000000000000e+00
+0.00000000000000e+00
+0.00000000000000e+00
+0.00000000000000e+00
+0.00000000000000e+00
+0.00000000000000e+00
+0.00000000000000e+00
+0.00000000000000e+00
+0.00000000000000e+00
+0.00000000000000e+00
+0.00000000000000e+00
+0.00000000000000e+00
+0.00000000000000e+00
+0.00000000000000e+00
+0.00000000000000e+00
+0.00000000000000e+00
+0.00000000000000e+00
+0.00000000000000e+00
+0.00000000000000e+00
+0.00000000000000e+00
+0.00000000000000e+00
+0.00000000000000e+00
+0.00000000000000e+00
+0.00000000000000e+00
+0.00000000000000e+00
+0.00000000000000e+00
+0.00000000000000e+00
+0.00000000000000e+00
+0.00000000000000e+00
+0.00000000000000e+00
+0.00000000000000e+00
+0.00000000000000e+00
+0.00000000000000e+00
+0.00000000000000e+00
+0.00000000000000e+00
+0.00000000000000e+00
+0.00000000000000e+00
+0.00000000000000e+00
+0.00000000000000e+00
+0.00000000000000e+00
+0.00000000000000e+00
+0.00000000000000e+00
+0.00000000000000e+00
+0.00000000000000e+00
+0.00000000000000e+00
+0.00000000000000e+00
+0.00000000000000e+00
+0.00000000000000e+00
+0.00000000000000e+00
+0.00000000000000e+00
+0.00000000000000e+00
+0.00000000000000e+00
+0.00000000000000e+00
+0.00000000000000e+00
+0.00000000000000e+00
+0.00000000000000e+00
+0.00000000000000e+00
+0.00000000000000e+00
+0.00000000000000e+00
+0.00000000000000e+00
+0.00000000000000e+00
+0.00000000000000e+00
+0.00000000000000e+00
+0.00000000000000e+00
+0.00000000000000e+00
+0.00000000000000e+00
+0.00000000000000e+00
+0.00000000000000e+00
+0.00000000000000e+00
+0.00000000000000e+00
+0.00000000000000e+00
+0.00000000000000e+00
+0.00000000000000e+00
+0.00000000000000e+00
+0.00000000000000e+00
+0.00000000000000e+00
+0.00000000000000e+00
+0.00000000000000e+00
+0.00000000000000e+00
+0.00000000000000e+00
+0.00000000000000e+00
+0.00000000000000e+00
+0.00000000000000e+00
+0.00000000000000e+00
+0.00000000000000e+00
+0.00000000000000e+00
+0.00000000000000e+00
+0.00000000000000e+00
+0.00000000000000e+00
+0.00000000000000e+00
+0.00000000000000e+00
+2.93000000000000e+02
+2.93000000000000e+02
+2.93000000000000e+02
+2.93000000000000e+02
+2.93000000000000e+02
+2.93000000000000e+02
+2.93000000000000e+02
+2.93000000000000e+02
+2.93000000000000e+02
+2.93000000000000e+02
+2.93000000000000e+02
+2.93000000000000e+02
+2.93000000000000e+02
+2.93000000000000e+02
+2.93000000000000e+02
+2.93000000000000e+02
+2.93000000000000e+02
+2.93000000000000e+02
+2.93000000000000e+02
+2.93000000000000e+02
+2.93000000000000e+02
+2.93000000000000e+02
+2.93000000000000e+02
+2.93000000000000e+02
+2.93000000000000e+02
+2.93000000000000e+02
+2.93000000000000e+02
+2.93000000000000e+02
+2.93000000000000e+02
+2.93000000000000e+02
+2.93000000000000e+02
+2.93000000000000e+02
+2.93000000000000e+02
+2.93000000000000e+02
+2.93000000000000e+02
+2.93000000000000e+02
+2.93000000000000e+02
+2.93000000000000e+02
+2.93000000000000e+02
+2.93000000000000e+02
+2.93000000000000e+02
+2.93000000000000e+02
+2.93000000000000e+02
+2.93000000000000e+02
+2.93000000000000e+02
+2.93000000000000e+02
+2.93000000000000e+02
+2.93000000000000e+02
+2.93000000000000e+02
+2.93000000000000e+02
+2.93000000000000e+02
+2.93000000000000e+02
+2.93000000000000e+02
+2.93000000000000e+02
+2.93000000000000e+02
+2.93000000000000e+02
+2.93000000000000e+02
+2.93000000000000e+02
+2.93000000000000e+02
+2.93000000000000e+02
+2.93000000000000e+02
+2.93000000000000e+02
+2.93000000000000e+02
+2.93000000000000e+02
+2.93000000000000e+02
+2.93000000000000e+02
+2.93000000000000e+02
+2.93000000000000e+02
+2.93000000000000e+02
+2.93000000000000e+02
+2.93000000000000e+02
+2.93000000000000e+02
+2.93000000000000e+02
+2.93000000000000e+02
+2.93000000000000e+02
+2.93000000000000e+02
+2.93000000000000e+02
+2.93000000000000e+02
+2.93000000000000e+02
+2.93000000000000e+02
+2.93000000000000e+02
+2.93000000000000e+02
+2.93000000000000e+02
+2.93000000000000e+02
+2.93000000000000e+02
+2.93000000000000e+02
+2.93000000000000e+02
+2.93000000000000e+02
+2.93000000000000e+02
+2.93000000000000e+02
+2.93000000000000e+02
+2.93000000000000e+02
+2.93000000000000e+02
+2.93000000000000e+02
+2.93000000000000e+02
+2.93000000000000e+02
+2.93000000000000e+02
+2.93000000000000e+02
+2.93000000000000e+02
+2.93000000000000e+02
+2.93000000000000e+02
+2.93000000000000e+02
+2.93000000000000e+02
+2.93000000000000e+02
+2.93000000000000e+02
+2.93000000000000e+02
+2.93000000000000e+02
+2.93000000000000e+02
+2.93000000000000e+02
+2.93000000000000e+02
+2.93000000000000e+02
+2.93000000000000e+02
+2.93000000000000e+02
+2.93000000000000e+02
+2.93000000000000e+02
+2.93000000000000e+02
+2.93000000000000e+02
+2.93000000000000e+02
+2.93000000000000e+02
+2.93000000000000e+02
+2.93000000000000e+02
+2.93000000000000e+02
+2.93000000000000e+02
+2.93000000000000e+02
+2.93000000000000e+02
+2.93000000000000e+02
+2.93000000000000e+02
+2.93000000000000e+02
+2.93000000000000e+02
+2.93000000000000e+02
+2.93000000000000e+02
+2.93000000000000e+02
+2.93000000000000e+02
+2.93000000000000e+02
+2.93000000000000e+02
+2.93000000000000e+02
+2.93000000000000e+02
+2.93000000000000e+02
+2.93000000000000e+02
+1.61700267757532e-01
+4.14037187143034e+00
+1.61512500095354e-01
+1.61326730905937e-01
+1.61314010913851e-01
+1.61314034313602e-01
+1.61322013116955e-01
+1.61319672773360e-01
+1.61312909588095e-01
+1.61311066115013e-01
+1.61314842918668e-01
+1.61321383990886e-01
+1.61322644144997e-01
+1.61318329409997e-01
+1.61303144152518e-01
+1.61293503770636e-01
+1.61306630586521e-01
+1.61307068660214e-01
+1.61306481112652e-01
+1.61308138272381e-01
+1.61293050695678e-01
+1.61301087875192e-01
+1.61303120163815e-01
+1.61291611788151e-01
+1.61288315511358e-01
+1.61281261644673e-01
+1.61289155708447e-01
+1.61290335868531e-01
+1.61272354822997e-01
+1.61273960682284e-01
+1.61275120080799e-01
+1.61261367718943e-01
+1.61253091652645e-01
+1.61254859424101e-01
+1.61255848954749e-01
+1.61251374528308e-01
+1.61241750434039e-01
+1.61243437809802e-01
+1.61254044355119e-01
+1.61247636841637e-01
+1.61225689370317e-01
+1.61210389915539e-01
+1.61222728894897e-01
+1.61226704874972e-01
+1.61218830561889e-01
+1.61199581561236e-01
+1.61192761325125e-01
+1.61184525350265e-01
+1.61169758202078e-01
+1.61164643917938e-01
+1.61140811454389e-01
+1.61123376237383e-01
+1.61125339494762e-01
+1.61126009437090e-01
+1.61112454764507e-01
+1.61103568305583e-01
+1.61092007867066e-01
+1.61059399161623e-01
+1.61020980238456e-01
+1.61008415829174e-01
+1.61006783979684e-01
+1.60988762402472e-01
+1.60939953517763e-01
+1.60902894755026e-01
+1.60882995374720e-01
+1.60839194789430e-01
+1.60784848928631e-01
+1.60734386355504e-01
+1.60702106495282e-01
+1.60656993697229e-01
+1.60599834849047e-01
+1.60536301954232e-01
+1.60459167109462e-01
+1.60375669213890e-01
+1.60310255561982e-01
+1.60234376566661e-01
+1.60109021140946e-01
+1.60009515316826e-01
+1.59889165474667e-01
+1.59751666759605e-01
+1.59627857624711e-01
+1.59473148448618e-01
+1.59303753746750e-01
+1.59099719894181e-01
+1.58880648574316e-01
+1.58681568547838e-01
+1.58458305470261e-01
+1.58178396196299e-01
+1.57867804879817e-01
+1.57522132851158e-01
+1.57170038712370e-01
+1.56762727823684e-01
+1.56291134042316e-01
+1.55794943744907e-01
+1.55241072069714e-01
+1.54649540662816e-01
+1.53980017006272e-01
+1.53232352324380e-01
+1.52489884198313e-01
+1.51720460602577e-01
+1.50959885660018e-01
+1.50019995200466e-01
+1.48845235739618e-01
+1.47654926625827e-01
+1.46387952698067e-01
+1.44997047852474e-01
+1.43507649353551e-01
+1.41940148008466e-01
+1.40283637889056e-01
+1.38592745907458e-01
+1.36952657452371e-01
+1.35454230677363e-01
+1.34259073269953e-01
+1.33648085705858e-01
+1.34091994623505e-01
+1.36218986471538e-01
+1.40410710246696e-01
+1.46623419341047e-01
+1.54550638193948e-01
+1.63776946967962e-01
+1.73757556232197e-01
+1.83990469707734e-01
+1.94288658669823e-01
+2.04892229649353e-01
+2.16730577694732e-01
+2.31568948917757e-01
+2.53109512596050e-01
+3.06872132536061e-01
+4.42362801559583e-01
+6.59630454680938e-01
+9.47233423754740e-01
+1.30518299099412e+00
+1.71839880688057e+00
+2.16367026718357e+00
+2.63348464986634e+00
+3.11890310044212e+00
+3.56879702305985e+00
+3.92880596847964e+00
+4.11171541155280e+00
-5.20414854685057e+03
-5.20414854685057e+03
-5.20414854685057e+03
-5.20414854685057e+03
-5.20414854685057e+03
-5.20414854685057e+03
-5.20414854685057e+03
-5.20414854685057e+03
-5.20414854685057e+03
-5.20414854685057e+03
-5.20414854685057e+03
-5.20414854685057e+03
-5.20414854685057e+03
-5.20414854685057e+03
-5.20414854685057e+03
-5.20414854685057e+03
-5.20414854685057e+03
-5.20414854685057e+03
-5.20414854685057e+03
-5.20414854685057e+03
-5.20414854685057e+03
-5.20414854685057e+03
-5.20414854685057e+03
-5.20414854685057e+03
-5.20414854685057e+03
-5.20414854685057e+03
-5.20414854685057e+03
-5.20414854685057e+03
-5.20414854685057e+03
-5.20414854685057e+03
-5.20414854685057e+03
-5.20414854685057e+03
-5.20414854685057e+03
-5.20414854685057e+03
-5.20414854685057e+03
-5.20414854685057e+03
-5.20414854685057e+03
-5.20414854685057e+03
-5.20414854685057e+03
-5.20414854685057e+03
-5.20414854685057e+03
-5.20414854685057e+03
-5.20414854685057e+03
-5.20414854685057e+03
-5.20414854685057e+03
-5.20414854685057e+03
-5.20414854685057e+03
-5.20414854685057e+03
-5.20414854685057e+03
-5.20414854685057e+03
-5.20414854685057e+03
-5.20414854685057e+03
-5.20414854685057e+03
-5.20414854685057e+03
-5.20414854685057e+03
-5.20414854685057e+03
-5.20414854685057e+03
-5.20414854685057e+03
-5.20414854685057e+03
-5.20414854685057e+03
-5.20414854685057e+03
-5.20414854685057e+03
-5.20414854685057e+03
-5.20414854685057e+03
-5.20414854685057e+03
-5.20414854685057e+03
-5.20414854685057e+03
-5.20414854685057e+03
-5.20414854685057e+03
-5.20414854685057e+03
-5.20414854685057e+03
-5.20414854685057e+03
-5.20414854685057e+03
-5.20414854685057e+03
-5.20414854685057e+03
-5.20414854685057e+03
-5.20414854685057e+03
-5.20414854685057e+03
-5.20414854685057e+03
-5.20414854685057e+03
-5.20414854685057e+03
-5.20414854685057e+03
-5.20414854685057e+03
-5.20414854685057e+03
-5.20414854685057e+03
-5.20414854685057e+03
-5.20414854685057e+03
-5.20414854685057e+03
-5.20414854685057e+03
-5.20414854685057e+03
-5.20414854685057e+03
-5.20414854685057e+03
-5.20414854685057e+03
-5.20414854685057e+03
-5.20414854685057e+03
-5.20414854685057e+03
-5.20414854685057e+03
-5.20414854685057e+03
-5.20414854685057e+03
-5.20414854685057e+03
-5.20414854685057e+03
-5.20414854685057e+03
-5.20414854685057e+03
-5.20414854685057e+03
-5.20414854685057e+03
-5.20414854685057e+03
-5.20414854685057e+03
-5.20414854685057e+03
-5.20414854685057e+03
-5.20414854685057e+03
-5.20414854685057e+03
-5.20414854685057e+03
-5.20414854685057e+03
-5.20414854685057e+03
-5.20414854685057e+03
-5.20414854685057e+03
-5.20414854685057e+03
-5.20414854685057e+03
-5.20414854685057e+03
-5.20414854685057e+03
-5.20414854685057e+03
-5.20414854685057e+03
-5.20414854685057e+03
-5.20414854685057e+03
-5.20414854685057e+03
-5.20414854685057e+03
-5.20414854685057e+03
-5.20414854685057e+03
-5.20414854685057e+03
-5.20414854685057e+03
-5.20414854685057e+03
-5.20414854685057e+03
-5.20414854685057e+03
-5.20414854685057e+03
-5.20414854685057e+03
-5.20414854685057e+03
-5.20414854685057e+03
-5.20414854685057e+03
-5.20414854685057e+03
+0.00000000000000e+00
+0.00000000000000e+00
+0.00000000000000e+00
+0.00000000000000e+00
+0.00000000000000e+00
+0.00000000000000e+00
+0.00000000000000e+00
+0.00000000000000e+00
+0.00000000000000e+00
+0.00000000000000e+00
+0.00000000000000e+00
+0.00000000000000e+00
+0.00000000000000e+00
+0.00000000000000e+00
+0.00000000000000e+00
+0.00000000000000e+00
+0.00000000000000e+00
+0.00000000000000e+00
+0.00000000000000e+00
+0.00000000000000e+00
+0.00000000000000e+00
+0.00000000000000e+00
+0.00000000000000e+00
+0.00000000000000e+00
+0.00000000000000e+00
+0.00000000000000e+00
+0.00000000000000e+00
+0.00000000000000e+00
+0.00000000000000e+00
+0.00000000000000e+00
+0.00000000000000e+00
+0.00000000000000e+00
+0.00000000000000e+00
+0.00000000000000e+00
+0.00000000000000e+00
+0.00000000000000e+00
+0.00000000000000e+00
+0.00000000000000e+00
+0.00000000000000e+00
+0.00000000000000e+00
+0.00000000000000e+00
+0.00000000000000e+00
+0.00000000000000e+00
+0.00000000000000e+00
+0.00000000000000e+00
+0.00000000000000e+00
+0.00000000000000e+00
+0.00000000000000e+00
+0.00000000000000e+00
+0.00000000000000e+00
+0.00000000000000e+00
+0.00000000000000e+00
+0.00000000000000e+00
+0.00000000000000e+00
+0.00000000000000e+00
+0.00000000000000e+00
+0.00000000000000e+00
+0.00000000000000e+00
+0.00000000000000e+00
+0.00000000000000e+00
+0.00000000000000e+00
+0.00000000000000e+00
+0.00000000000000e+00
+0.00000000000000e+00
+0.00000000000000e+00
+0.00000000000000e+00
+0.00000000000000e+00
+0.00000000000000e+00
+0.00000000000000e+00
+0.00000000000000e+00
+0.00000000000000e+00
+0.00000000000000e+00
+0.00000000000000e+00
+0.00000000000000e+00
+0.00000000000000e+00
+0.00000000000000e+00
+0.00000000000000e+00
+0.00000000000000e+00
+0.00000000000000e+00
+0.00000000000000e+00
+0.00000000000000e+00
+0.00000000000000e+00
+0.00000000000000e+00
+0.00000000000000e+00
+0.00000000000000e+00
+0.00000000000000e+00
+0.00000000000000e+00
+0.00000000000000e+00
+0.00000000000000e+00
+0.00000000000000e+00
+0.00000000000000e+00
+0.00000000000000e+00
+0.00000000000000e+00
+0.00000000000000e+00
+0.00000000000000e+00
+0.00000000000000e+00
+0.00000000000000e+00
+0.00000000000000e+00
+0.00000000000000e+00
+0.00000000000000e+00
+0.00000000000000e+00
+0.00000000000000e+00
+0.00000000000000e+00
+0.00000000000000e+00
+0.00000000000000e+00
+0.00000000000000e+00
+0.00000000000000e+00
+0.00000000000000e+00
+0.00000000000000e+00
+0.00000000000000e+00
+0.00000000000000e+00
+0.00000000000000e+00
+0.00000000000000e+00
+0.00000000000000e+00
+0.00000000000000e+00
+0.00000000000000e+00
+0.00000000000000e+00
+0.00000000000000e+00
+0.00000000000000e+00
+0.00000000000000e+00
+0.00000000000000e+00
+0.00000000000000e+00
+0.00000000000000e+00
+0.00000000000000e+00
+0.00000000000000e+00
+0.00000000000000e+00
+0.00000000000000e+00
+0.00000000000000e+00
+0.00000000000000e+00
+0.00000000000000e+00
+0.00000000000000e+00
+0.00000000000000e+00
+0.00000000000000e+00
+0.00000000000000e+00
+0.00000000000000e+00
+0.00000000000000e+00
+0.00000000000000e+00
+0.00000000000000e+00
+0.00000000000000e+00
+0.00000000000000e+00
+0.00000000000000e+00
+0.00000000000000e+00
+0.00000000000000e+00
+0.00000000000000e+00
+0.00000000000000e+00
+0.00000000000000e+00
+0.00000000000000e+00
+0.00000000000000e+00
+0.00000000000000e+00
+0.00000000000000e+00
+0.00000000000000e+00
+0.00000000000000e+00
+0.00000000000000e+00
+0.00000000000000e+00
+0.00000000000000e+00
+0.00000000000000e+00
+0.00000000000000e+00
+0.00000000000000e+00
+0.00000000000000e+00
+0.00000000000000e+00
+0.00000000000000e+00
+0.00000000000000e+00
+0.00000000000000e+00
+0.00000000000000e+00
+0.00000000000000e+00
+0.00000000000000e+00
+0.00000000000000e+00
+0.00000000000000e+00
+0.00000000000000e+00
+0.00000000000000e+00
+0.00000000000000e+00
+0.00000000000000e+00
+0.00000000000000e+00
+0.00000000000000e+00
+0.00000000000000e+00
+0.00000000000000e+00
+0.00000000000000e+00
+0.00000000000000e+00
+0.00000000000000e+00
+0.00000000000000e+00
+0.00000000000000e+00
+0.00000000000000e+00
+0.00000000000000e+00
+0.00000000000000e+00
+0.00000000000000e+00
+0.00000000000000e+00
+0.00000000000000e+00
+0.00000000000000e+00
+0.00000000000000e+00
+0.00000000000000e+00
+0.00000000000000e+00
+0.00000000000000e+00
+0.00000000000000e+00
+0.00000000000000e+00
+0.00000000000000e+00
+0.00000000000000e+00
+0.00000000000000e+00
+0.00000000000000e+00
+0.00000000000000e+00
+0.00000000000000e+00
+0.00000000000000e+00
+0.00000000000000e+00
+0.00000000000000e+00
+0.00000000000000e+00
+0.00000000000000e+00
+0.00000000000000e+00
+0.00000000000000e+00
+0.00000000000000e+00
+0.00000000000000e+00
+0.00000000000000e+00
+0.00000000000000e+00
+0.00000000000000e+00
+0.00000000000000e+00
+0.00000000000000e+00
+0.00000000000000e+00
+0.00000000000000e+00
+0.00000000000000e+00
+0.00000000000000e+00
+0.00000000000000e+00
+0.00000000000000e+00
+0.00000000000000e+00
+0.00000000000000e+00
+0.00000000000000e+00
+0.00000000000000e+00
+0.00000000000000e+00
+0.00000000000000e+00
+0.00000000000000e+00
+0.00000000000000e+00
+0.00000000000000e+00
+0.00000000000000e+00
+0.00000000000000e+00
+0.00000000000000e+00
+0.00000000000000e+00
+0.00000000000000e+00
+0.00000000000000e+00
+0.00000000000000e+00
+0.00000000000000e+00
+0.00000000000000e+00