TITLE = Boundary data
VARIABLES =  "x0" "x1" "p" "u" "v" "T" "rho" "H" "M" "xc0" "xc1" "xc2" "xc3" "xc4"
ZONE   T= "ZONE0 Wall", N=139, E=138, ZONETYPE=FELINESEG, DATAPACKING=BLOCK, STRANDID=1, SOLUTIONTIME=1.41020000000000e+04, VARLOCATION=( [1-2]=NODAL,[3-6]=NODAL,[7-14]=NODAL)
+1.10000000000000e+00
+1.80137700000000e-02
+1.07163162050000e+00
+1.04521824960000e+00
+1.02062515790000e+00
+9.97726900530000e-01
+9.76406678040000e-01
+9.56555740000000e-01
+9.36704819320000e-01
+9.16323082120000e-01
+8.95396334290000e-01
+8.73910002150000e-01
+8.51849122350000e-01
+8.31320160150000e-01
+8.12216738500000e-01
+7.94439867200000e-01
+7.77897430000000e-01
+7.61354995270000e-01
+7.45234795260000e-01
+7.29526052700000e-01
+7.14218265420000e-01
+6.99301199290000e-01
+6.84823989550000e-01
+6.70773666230000e-01
+6.57137641830000e-01
+6.43903700000000e-01
+6.30669783380000e-01
+6.17647687050000e-01
+6.04834020630000e-01
+5.92225448030000e-01
+5.79818686550000e-01
+5.67610506010000e-01
+5.55597727970000e-01
+5.43777224830000e-01
+5.32145919060000e-01
+5.20700782410000e-01
+5.09438835080000e-01
+4.98357144950000e-01
+4.87452826860000e-01
+4.76723041810000e-01
+4.66164996260000e-01
+4.55775941360000e-01
+4.45553172270000e-01
+4.35494027450000e-01
+4.25595887940000e-01
+4.15856176710000e-01
+4.06272357990000e-01
+3.96841936580000e-01
+3.87562457220000e-01
+3.78431503960000e-01
+3.69446699500000e-01
+3.60605704610000e-01
+3.51906217500000e-01
+3.43345973200000e-01
+3.34922743020000e-01
+3.26634333920000e-01
+3.18478587980000e-01
+3.10453381810000e-01
+3.02556626000000e-01
+2.94786264610000e-01
+2.87140274570000e-01
+2.79616665220000e-01
+2.72213477740000e-01
+2.64928784690000e-01
+2.57797843450000e-01
+2.50817408920000e-01
+2.43984304490000e-01
+2.37295420580000e-01
+2.30747713260000e-01
+2.24338202820000e-01
+2.18063972470000e-01
+2.11922166960000e-01
+2.05909991320000e-01
+2.00024709550000e-01
+1.94263643420000e-01
+1.88624171220000e-01
+1.83103726550000e-01
+1.77699797220000e-01
+1.72409924020000e-01
+1.67231699680000e-01
+1.62162767720000e-01
+1.57200821390000e-01
+1.52343602640000e-01
+1.47588901070000e-01
+1.42934552950000e-01
+1.38378440200000e-01
+1.33918489440000e-01
+1.29552671070000e-01
+1.25278998310000e-01
+1.21095526330000e-01
+1.17000351330000e-01
+1.12991609710000e-01
+1.09067477190000e-01
+1.05226167990000e-01
+1.01465934040000e-01
+9.77850641540000e-02
+9.41818832550000e-02
+9.06547516300000e-02
+8.72020641710000e-02
+8.38222496510000e-02
+8.05137700000000e-02
+7.72052851670000e-02
+7.39068100290000e-02
+7.06183143040000e-02
+6.73397677990000e-02
+6.40711404120000e-02
+6.08124021340000e-02
+5.75635230450000e-02
+5.43244733180000e-02
+5.10952232130000e-02
+4.78757430830000e-02
+4.46660033680000e-02
+4.14659746000000e-02
+3.82756273980000e-02
+3.50949324710000e-02
+3.24262341680000e-02
+3.01871163650000e-02
+2.83084294680000e-02
+2.67321548970000e-02
+2.54096133230000e-02
+2.42999613330000e-02
+2.33689300800000e-02
+2.25877669750000e-02
+2.19323477340000e-02
+2.13824313620000e-02
+2.09210350560000e-02
+2.05339097370000e-02
+2.02091000000000e-02
+1.98878224150000e-02
+1.95871238660000e-02
+1.93102464880000e-02
+1.90595167480000e-02
+1.88363491970000e-02
+1.86413709150000e-02
+1.84694302330000e-02
+1.83181816420000e-02
+1.81921852220000e-02
+1.80962223910000e-02
+1.80351572710000e-02
+1.35063020000000e-01
+0.00000000000000e+00
+1.31579821070000e-01
+1.28336667020000e-01
+1.25317015130000e-01
+1.22505462730000e-01
+1.19887668640000e-01
+1.17450280000000e-01
+1.15012892550000e-01
+1.12510329000000e-01
+1.09940846540000e-01
+1.07302655730000e-01
+1.04593919320000e-01
+1.02073278810000e-01
+9.97276727340000e-02
+9.75449466160000e-02
+9.55137900000000e-02
+9.34826345760000e-02
+9.15033230530000e-02
+8.95745321480000e-02
+8.76949723570000e-02
+8.58633870880000e-02
+8.40858093860000e-02
+8.23606467440000e-02
+8.06863536080000e-02
+7.90614300000000e-02
+7.74365094810000e-02
+7.58375972200000e-02
+7.42642769330000e-02
+7.27161389990000e-02
+7.11927803510000e-02
+6.96938043770000e-02
+6.82188208090000e-02
+6.67674456300000e-02
+6.53393009660000e-02
+6.39340149930000e-02
+6.25512218380000e-02
+6.11905614830000e-02
+5.98516796750000e-02
+5.85342278280000e-02
+5.72378629380000e-02
+5.59622474890000e-02
+5.47070493690000e-02
+5.34719417810000e-02
+5.22566031580000e-02
+5.10607170820000e-02
+4.98839721960000e-02
+4.87260621310000e-02
+4.75866854180000e-02
+4.64655454140000e-02
+4.53623502270000e-02
+4.42768126330000e-02
+4.32086500070000e-02
+4.21575842480000e-02
+4.11233417060000e-02
+4.01056531100000e-02
+3.91042535010000e-02
+3.81188821590000e-02
+3.71492825380000e-02
+3.61952021970000e-02
+3.52563927380000e-02
+3.43326097360000e-02
+3.34236126800000e-02
+3.25291649090000e-02
+3.16535954860000e-02
+3.07965059620000e-02
+2.99575062980000e-02
+2.91362146850000e-02
+2.83322573770000e-02
+2.75452685110000e-02
+2.67748899500000e-02
+2.60207711140000e-02
+2.52825688220000e-02
+2.45599471390000e-02
+2.38525772170000e-02
+2.31601371500000e-02
+2.24823118260000e-02
+2.18187927850000e-02
+2.11692780770000e-02
+2.05334721220000e-02
+1.99110855830000e-02
+1.93018352270000e-02
+1.87054438010000e-02
+1.81216399010000e-02
+1.75501578530000e-02
+1.69907375910000e-02
+1.64431245360000e-02
+1.59070694840000e-02
+1.53823284910000e-02
+1.48686627590000e-02
+1.43658385330000e-02
+1.38736269900000e-02
+1.33918041370000e-02
+1.29201507100000e-02
+1.24584520700000e-02
+1.20064981100000e-02
+1.15640831590000e-02
+1.11310058830000e-02
+1.07070692020000e-02
+1.02920801910000e-02
+9.88585000000000e-03
+9.47961927560000e-03
+9.07461758690000e-03
+8.67084121560000e-03
+8.26828645440000e-03
+7.86694960750000e-03
+7.46682699000000e-03
+7.06791492850000e-03
+6.67020976030000e-03
+6.27370783410000e-03
+5.87840550950000e-03
+5.48429915710000e-03
+5.09138515870000e-03
+4.69965990670000e-03
+4.30911980470000e-03
+3.98144496270000e-03
+3.70651595660000e-03
+3.47584228650000e-03
+3.28230016880000e-03
+3.11991253550000e-03
+2.98366444790000e-03
+2.86934822170000e-03
+2.77343348430000e-03
+2.69295814700000e-03
+2.62543692890000e-03
+2.56878460460000e-03
+2.52125160790000e-03
+2.48137000000000e-03
+2.42037365300000e-03
+2.32192681100000e-03
+2.19124315440000e-03
+2.03350957080000e-03
+1.85371828800000e-03
+1.65654221500000e-03
+1.43898706010000e-03
+1.19557473600000e-03
+9.27496414520000e-04
+6.36763119340000e-04
+3.26314002040000e-04
+1.37493440410416e+04
+3.47424119054229e+05
+1.37418443932548e+04
+1.37355598923998e+04
+1.37369345394112e+04
+1.37381823305308e+04
+1.37392331321179e+04
+1.37401210506356e+04
+1.37408743045538e+04
+1.37414315252365e+04
+1.37417015770488e+04
+1.37417552992542e+04
+1.37416456987391e+04
+1.37414620356073e+04
+1.37413229740841e+04
+1.37414321095929e+04
+1.37418627504117e+04
+1.37424843195461e+04
+1.37432966859420e+04
+1.37442144814172e+04
+1.37450551680001e+04
+1.37457640149002e+04
+1.37462169889624e+04
+1.37464167767955e+04
+1.37477768203918e+04
+1.37489831874364e+04
+1.37489948757911e+04
+1.37490511454870e+04
+1.37490294422482e+04
+1.37492086460757e+04
+1.37494623544575e+04
+1.37498043666399e+04
+1.37503311775112e+04
+1.37508210936136e+04
+1.37512081248862e+04
+1.37514843672307e+04
+1.37516836132199e+04
+1.37516573440917e+04
+1.37512732513046e+04
+1.37508694572149e+04
+1.37504125352327e+04
+1.37499367951549e+04
+1.37497383701576e+04
+1.37496666340898e+04
+1.37496166301613e+04
+1.37494624289092e+04
+1.37490977530439e+04
+1.37485175211783e+04
+1.37477599990687e+04
+1.37467984563147e+04
+1.37456189799235e+04
+1.37441510262799e+04
+1.37425576836554e+04
+1.37410315487695e+04
+1.37394070872743e+04
+1.37377488326674e+04
+1.37359518716182e+04
+1.37338196170432e+04
+1.37312313631934e+04
+1.37282108960043e+04
+1.37248320638145e+04
+1.37209457158468e+04
+1.37166556053256e+04
+1.37120966088588e+04
+1.37071165211151e+04
+1.37016453382257e+04
+1.36957668925101e+04
+1.36893972803552e+04
+1.36825791214172e+04
+1.36750085204108e+04
+1.36665911012359e+04
+1.36576538567492e+04
+1.36477545957412e+04
+1.36366723984226e+04
+1.36248507844907e+04
+1.36120201184562e+04
+1.35981017753828e+04
+1.35829516903159e+04
+1.35662023191304e+04
+1.35479470153839e+04
+1.35280094065690e+04
+1.35060315079946e+04
+1.34817817401149e+04
+1.34553933789083e+04
+1.34267971344085e+04
+1.33959013931028e+04
+1.33631314598322e+04
+1.33285159531848e+04
+1.32922652438090e+04
+1.32544410472602e+04
+1.32151153526373e+04
+1.31740069101403e+04
+1.31303916076301e+04
+1.30835751856168e+04
+1.30328379180607e+04
+1.29777797200794e+04
+1.29184288948568e+04
+1.28550965976328e+04
+1.27882542393921e+04
+1.27193959089077e+04
+1.26487263754536e+04
+1.25742218182461e+04
+1.24973511940960e+04
+1.24204386487241e+04
+1.23456952406762e+04
+1.22756609870297e+04
+1.22140266317279e+04
+1.21648822200301e+04
+1.21334883808776e+04
+1.21275720699514e+04
+1.21577784388641e+04
+1.22377611274747e+04
+1.23866207479179e+04
+1.26320256860002e+04
+1.30385236332514e+04
+1.35830435234579e+04
+1.42586790784340e+04
+1.50532067368959e+04
+1.59527869933921e+04
+1.69399071281626e+04
+1.79946761614909e+04
+1.91062915693124e+04
+2.02955190029430e+04
+2.20839092603980e+04
+2.38996471348912e+04
+2.54408411356828e+04
+2.73227501147309e+04
+3.20735414073647e+04
+4.43319032402922e+04
+6.36232646417362e+04
+8.80541006575256e+04
+1.17293234192723e+05
+1.50998978176939e+05
+1.85668065165438e+05
+2.26158747310329e+05
+2.66904975956281e+05
+3.02222955824231e+05
+3.34485086864319e+05
+3.47901559938629e+05
+0.00000000000000e+00
+0.00000000000000e+00
+0.00000000000000e+00
+0.00000000000000e+00
+0.00000000000000e+00
+0.00000000000000e+00
+0.00000000000000e+00
+0.00000000000000e+00
+0.00000000000000e+00
+0.00000000000000e+00
+0.00000000000000e+00
+0.00000000000000e+00
+0.00000000000000e+00
+0.00000000000000e+00
+0.00000000000000e+00
+0.00000000000000e+00
+0.00000000000000e+00
+0.00000000000000e+00
+0.00000000000000e+00
+0.00000000000000e+00
+0.00000000000000e+00
+0.00000000000000e+00
+0.00000000000000e+00
+0.00000000000000e+00
+0.00000000000000e+00
+0.00000000000000e+00
+0.00000000000000e+00
+0.00000000000000e+00
+0.00000000000000e+00
+0.00000000000000e+00
+0.00000000000000e+00
+0.00000000000000e+00
+0.00000000000000e+00
+0.00000000000000e+00
+0.00000000000000e+00
+0.00000000000000e+00
+0.00000000000000e+00
+0.00000000000000e+00
+0.00000000000000e+00
+0.00000000000000e+00
+0.00000000000000e+00
+0.00000000000000e+00
+0.00000000000000e+00
+0.00000000000000e+00
+0.00000000000000e+00
+0.00000000000000e+00
+0.00000000000000e+00
+0.00000000000000e+00
+0.00000000000000e+00
+0.00000000000000e+00
+0.00000000000000e+00
+0.00000000000000e+00
+0.00000000000000e+00
+0.00000000000000e+00
+0.00000000000000e+00
+0.00000000000000e+00
+0.00000000000000e+00
+0.00000000000000e+00
+0.00000000000000e+00
+0.00000000000000e+00
+0.00000000000000e+00
+0.00000000000000e+00
+0.00000000000000e+00
+0.00000000000000e+00
+0.00000000000000e+00
+0.00000000000000e+00
+0.00000000000000e+00
+0.00000000000000e+00
+0.00000000000000e+00
+0.00000000000000e+00
+0.00000000000000e+00
+0.00000000000000e+00
+0.00000000000000e+00
+0.00000000000000e+00
+0.00000000000000e+00
+0.00000000000000e+00
+0.00000000000000e+00
+0.00000000000000e+00
+0.00000000000000e+00
+0.00000000000000e+00
+0.00000000000000e+00
+0.00000000000000e+00
+0.00000000000000e+00
+0.00000000000000e+00
+0.00000000000000e+00
+0.00000000000000e+00
+0.00000000000000e+00
+0.00000000000000e+00
+0.00000000000000e+00
+0.00000000000000e+00
+0.00000000000000e+00
+0.00000000000000e+00
+0.00000000000000e+00
+0.00000000000000e+00
+0.00000000000000e+00
+0.00000000000000e+00
+0.00000000000000e+00
+0.00000000000000e+00
+0.00000000000000e+00
+0.00000000000000e+00
+0.00000000000000e+00
+0.00000000000000e+00
+0.00000000000000e+00
+0.00000000000000e+00
+0.00000000000000e+00
+0.00000000000000e+00
+0.00000000000000e+00
+0.00000000000000e+00
+0.00000000000000e+00
+0.00000000000000e+00
+0.00000000000000e+00
+0.00000000000000e+00
+0.00000000000000e+00
+0.00000000000000e+00
+0.00000000000000e+00
+0.00000000000000e+00
+0.00000000000000e+00
+0.00000000000000e+00
+0.00000000000000e+00
+0.00000000000000e+00
+0.00000000000000e+00
+0.00000000000000e+00
+0.00000000000000e+00
+0.00000000000000e+00
+0.00000000000000e+00
+0.00000000000000e+00
+0.00000000000000e+00
+0.00000000000000e+00
+0.00000000000000e+00
+0.00000000000000e+00
+0.00000000000000e+00
+0.00000000000000e+00
+0.00000000000000e+00
+0.00000000000000e+00
+0.00000000000000e+00
+0.00000000000000e+00
+0.00000000000000e+00
+0.00000000000000e+00
+0.00000000000000e+00
+0.00000000000000e+00
+0.00000000000000e+00
+0.00000000000000e+00
+0.00000000000000e+00
+0.00000000000000e+00
+0.00000000000000e+00
+0.00000000000000e+00
+0.00000000000000e+00
+0.00000000000000e+00
+0.00000000000000e+00
+0.00000000000000e+00
+0.00000000000000e+00
+0.00000000000000e+00
+0.00000000000000e+00
+0.00000000000000e+00
+0.00000000000000e+00
+0.00000000000000e+00
+0.00000000000000e+00
+0.00000000000000e+00
+0.00000000000000e+00
+0.00000000000000e+00
+0.00000000000000e+00
+0.00000000000000e+00
+0.00000000000000e+00
+0.00000000000000e+00
+0.00000000000000e+00
+0.00000000000000e+00
+0.00000000000000e+00
+0.00000000000000e+00
+0.00000000000000e+00
+0.00000000000000e+00
+0.00000000000000e+00
+0.00000000000000e+00
+0.00000000000000e+00
+0.00000000000000e+00
+0.00000000000000e+00
+0.00000000000000e+00
+0.00000000000000e+00
+0.00000000000000e+00
+0.00000000000000e+00
+0.00000000000000e+00
+0.00000000000000e+00
+0.00000000000000e+00
+0.00000000000000e+00
+0.00000000000000e+00
+0.00000000000000e+00
+0.00000000000000e+00
+0.00000000000000e+00
+0.00000000000000e+00
+0.00000000000000e+00
+0.00000000000000e+00
+0.00000000000000e+00
+0.00000000000000e+00
+0.00000000000000e+00
+0.00000000000000e+00
+0.00000000000000e+00
+0.00000000000000e+00
+0.00000000000000e+00
+0.00000000000000e+00
+0.00000000000000e+00
+0.00000000000000e+00
+0.00000000000000e+00
+0.00000000000000e+00
+0.00000000000000e+00
+0.00000000000000e+00
+0.00000000000000e+00
+0.00000000000000e+00
+0.00000000000000e+00
+0.00000000000000e+00
+0.00000000000000e+00
+0.00000000000000e+00
+0.00000000000000e+00
+0.00000000000000e+00
+0.00000000000000e+00
+0.00000000000000e+00
+0.00000000000000e+00
+0.00000000000000e+00
+0.00000000000000e+00
+0.00000000000000e+00
+0.00000000000000e+00
+0.00000000000000e+00
+0.00000000000000e+00
+0.00000000000000e+00
+0.00000000000000e+00
+0.00000000000000e+00
+0.00000000000000e+00
+0.00000000000000e+00
+0.00000000000000e+00
+0.00000000000000e+00
+0.00000000000000e+00
+0.00000000000000e+00
+0.00000000000000e+00
+0.00000000000000e+00
+0.00000000000000e+00
+0.00000000000000e+00
+0.00000000000000e+00
+0.00000000000000e+00
+0.00000000000000e+00
+0.00000000000000e+00
+0.00000000000000e+00
+0.00000000000000e+00
+0.00000000000000e+00
+0.00000000000000e+00
+0.00000000000000e+00
+0.00000000000000e+00
+0.00000000000000e+00
+0.00000000000000e+00
+0.00000000000000e+00
+0.00000000000000e+00
+0.00000000000000e+00
+0.00000000000000e+00
+0.00000000000000e+00
+0.00000000000000e+00
+0.00000000000000e+00
+0.00000000000000e+00
+0.00000000000000e+00
+0.00000000000000e+00
+0.00000000000000e+00
+0.00000000000000e+00
+0.00000000000000e+00
+0.00000000000000e+00
+0.00000000000000e+00
+0.00000000000000e+00
+0.00000000000000e+00
+0.00000000000000e+00
+0.00000000000000e+00
+0.00000000000000e+00
+0.00000000000000e+00
+0.00000000000000e+00
+0.00000000000000e+00
+0.00000000000000e+00
+0.00000000000000e+00
+0.00000000000000e+00
+0.00000000000000e+00
+0.00000000000000e+00
+0.00000000000000e+00
+0.00000000000000e+00
+0.00000000000000e+00
+0.00000000000000e+00
+2.93000000000000e+02
+2.93000000000000e+02
+2.93000000000000e+02
+2.93000000000000e+02
+2.93000000000000e+02
+2.93000000000000e+02
+2.93000000000000e+02
+2.93000000000000e+02
+2.93000000000000e+02
+2.93000000000000e+02
+2.93000000000000e+02
+2.93000000000000e+02
+2.93000000000000e+02
+2.93000000000000e+02
+2.93000000000000e+02
+2.93000000000000e+02
+2.93000000000000e+02
+2.93000000000000e+02
+2.93000000000000e+02
+2.93000000000000e+02
+2.93000000000000e+02
+2.93000000000000e+02
+2.93000000000000e+02
+2.93000000000000e+02
+2.93000000000000e+02
+2.93000000000000e+02
+2.93000000000000e+02
+2.93000000000000e+02
+2.93000000000000e+02
+2.93000000000000e+02
+2.93000000000000e+02
+2.93000000000000e+02
+2.93000000000000e+02
+2.93000000000000e+02
+2.93000000000000e+02
+2.93000000000000e+02
+2.93000000000000e+02
+2.93000000000000e+02
+2.93000000000000e+02
+2.93000000000000e+02
+2.93000000000000e+02
+2.93000000000000e+02
+2.93000000000000e+02
+2.93000000000000e+02
+2.93000000000000e+02
+2.93000000000000e+02
+2.93000000000000e+02
+2.93000000000000e+02
+2.93000000000000e+02
+2.93000000000000e+02
+2.93000000000000e+02
+2.93000000000000e+02
+2.93000000000000e+02
+2.93000000000000e+02
+2.93000000000000e+02
+2.93000000000000e+02
+2.93000000000000e+02
+2.93000000000000e+02
+2.93000000000000e+02
+2.93000000000000e+02
+2.93000000000000e+02
+2.93000000000000e+02
+2.93000000000000e+02
+2.93000000000000e+02
+2.93000000000000e+02
+2.93000000000000e+02
+2.93000000000000e+02
+2.93000000000000e+02
+2.93000000000000e+02
+2.93000000000000e+02
+2.93000000000000e+02
+2.93000000000000e+02
+2.93000000000000e+02
+2.93000000000000e+02
+2.93000000000000e+02
+2.93000000000000e+02
+2.93000000000000e+02
+2.93000000000000e+02
+2.93000000000000e+02
+2.93000000000000e+02
+2.93000000000000e+02
+2.93000000000000e+02
+2.93000000000000e+02
+2.93000000000000e+02
+2.93000000000000e+02
+2.93000000000000e+02
+2.93000000000000e+02
+2.93000000000000e+02
+2.93000000000000e+02
+2.93000000000000e+02
+2.93000000000000e+02
+2.93000000000000e+02
+2.93000000000000e+02
+2.93000000000000e+02
+2.93000000000000e+02
+2.93000000000000e+02
+2.93000000000000e+02
+2.93000000000000e+02
+2.93000000000000e+02
+2.93000000000000e+02
+2.93000000000000e+02
+2.93000000000000e+02
+2.93000000000000e+02
+2.93000000000000e+02
+2.93000000000000e+02
+2.93000000000000e+02
+2.93000000000000e+02
+2.93000000000000e+02
+2.93000000000000e+02
+2.93000000000000e+02
+2.93000000000000e+02
+2.93000000000000e+02
+2.93000000000000e+02
+2.93000000000000e+02
+2.93000000000000e+02
+2.93000000000000e+02
+2.93000000000000e+02
+2.93000000000000e+02
+2.93000000000000e+02
+2.93000000000000e+02
+2.93000000000000e+02
+2.93000000000000e+02
+2.93000000000000e+02
+2.93000000000000e+02
+2.93000000000000e+02
+2.93000000000000e+02
+2.93000000000000e+02
+2.93000000000000e+02
+2.93000000000000e+02
+2.93000000000000e+02
+2.93000000000000e+02
+2.93000000000000e+02
+2.93000000000000e+02
+2.93000000000000e+02
+2.93000000000000e+02
+2.93000000000000e+02
+2.93000000000000e+02
+2.93000000000000e+02
+2.93000000000000e+02
+1.62828550501743e-01
+4.11441924400775e+00
+1.62739734862629e-01
+1.62665309772836e-01
+1.62681589224397e-01
+1.62696366367127e-01
+1.62708810633470e-01
+1.62719325934037e-01
+1.62728246450049e-01
+1.62734845414757e-01
+1.62738043541520e-01
+1.62738679754331e-01
+1.62737381794737e-01
+1.62735206738136e-01
+1.62733559882389e-01
+1.62734852335080e-01
+1.62739952259855e-01
+1.62747313280197e-01
+1.62756933844082e-01
+1.62767802966743e-01
+1.62777758916445e-01
+1.62786153536067e-01
+1.62791517945434e-01
+1.62793883961091e-01
+1.62809990469644e-01
+1.62824277041910e-01
+1.62824415462903e-01
+1.62825081844731e-01
+1.62824824821057e-01
+1.62826947067719e-01
+1.62829951645096e-01
+1.62834001972714e-01
+1.62840240804931e-01
+1.62846042705632e-01
+1.62850626178191e-01
+1.62853897617207e-01
+1.62856257216000e-01
+1.62855946120137e-01
+1.62851397447007e-01
+1.62846615458417e-01
+1.62841204295250e-01
+1.62835570276125e-01
+1.62833220400044e-01
+1.62832370855519e-01
+1.62831778676927e-01
+1.62829952526800e-01
+1.62825633801312e-01
+1.62818762323418e-01
+1.62809791260748e-01
+1.62798404054753e-01
+1.62784435938853e-01
+1.62767051490309e-01
+1.62748182105033e-01
+1.62730108636902e-01
+1.62710870722002e-01
+1.62691232607398e-01
+1.62669951842142e-01
+1.62644700315908e-01
+1.62614048553800e-01
+1.62578278244120e-01
+1.62538263946260e-01
+1.62492239321053e-01
+1.62441433080728e-01
+1.62387442520581e-01
+1.62328465127459e-01
+1.62263671870649e-01
+1.62194055546248e-01
+1.62118622513854e-01
+1.62037877502772e-01
+1.61948221590125e-01
+1.61848537113605e-01
+1.61742696532345e-01
+1.61625463134435e-01
+1.61494220646039e-01
+1.61354221511871e-01
+1.61202272535532e-01
+1.61037442590099e-01
+1.60858025565980e-01
+1.60659668769917e-01
+1.60443477754612e-01
+1.60207363803713e-01
+1.59947087432908e-01
+1.59659906128690e-01
+1.59347398230672e-01
+1.59008743162635e-01
+1.58642855978601e-01
+1.58254773411276e-01
+1.57844834380333e-01
+1.57415530229916e-01
+1.56967591835215e-01
+1.56501871737310e-01
+1.56015039195686e-01
+1.55498518809969e-01
+1.54944088714007e-01
+1.54343225450427e-01
+1.53691190957453e-01
+1.52988320419539e-01
+1.52238298736604e-01
+1.51446708659872e-01
+1.50631244146855e-01
+1.49794330206625e-01
+1.48911999455451e-01
+1.48001648222028e-01
+1.47090800530609e-01
+1.46205641154593e-01
+1.45376250605292e-01
+1.44646337039600e-01
+1.44064337396700e-01
+1.43692551418501e-01
+1.43622486669990e-01
+1.43980209864005e-01
+1.44927416160743e-01
+1.46690307259595e-01
+1.49596549930855e-01
+1.54410559336342e-01
+1.60859113112946e-01
+1.68860422684939e-01
+1.78269728799813e-01
+1.88923135157821e-01
+2.00613244899492e-01
+2.13104496285617e-01
+2.26268958897847e-01
+2.40352552897456e-01
+2.61531817339716e-01
+2.83034949802786e-01
+3.01286757630257e-01
+3.23573530753392e-01
+3.79835448238821e-01
+5.25006831166137e-01
+7.53467505713664e-01
+1.04279313493076e+00
+1.38906170725332e+00
+1.78822674524715e+00
+2.19880030895358e+00
+2.67831693627771e+00
+3.16085990916634e+00
+3.57911807852934e+00
+3.96118692615393e+00
+4.12007340517537e+00
-5.20457057957596e+03
-5.20457057957596e+03
-5.20457057957596e+03
-5.20457057957596e+03
-5.20457057957596e+03
-5.20457057957596e+03
-5.20457057957596e+03
-5.20457057957596e+03
-5.20457057957596e+03
-5.20457057957596e+03
-5.20457057957596e+03
-5.20457057957596e+03
-5.20457057957596e+03
-5.20457057957596e+03
-5.20457057957596e+03
-5.20457057957596e+03
-5.20457057957596e+03
-5.20457057957596e+03
-5.20457057957596e+03
-5.20457057957596e+03
-5.20457057957596e+03
-5.20457057957596e+03
-5.20457057957596e+03
-5.20457057957596e+03
-5.20457057957596e+03
-5.20457057957596e+03
-5.20457057957596e+03
-5.20457057957596e+03
-5.20457057957596e+03
-5.20457057957596e+03
-5.20457057957596e+03
-5.20457057957596e+03
-5.20457057957596e+03
-5.20457057957596e+03
-5.20457057957596e+03
-5.20457057957596e+03
-5.20457057957596e+03
-5.20457057957596e+03
-5.20457057957596e+03
-5.20457057957596e+03
-5.20457057957596e+03
-5.20457057957596e+03
-5.20457057957596e+03
-5.20457057957596e+03
-5.20457057957596e+03
-5.20457057957596e+03
-5.20457057957596e+03
-5.20457057957596e+03
-5.20457057957596e+03
-5.20457057957596e+03
-5.20457057957596e+03
-5.20457057957596e+03
-5.20457057957596e+03
-5.20457057957596e+03
-5.20457057957596e+03
-5.20457057957596e+03
-5.20457057957596e+03
-5.20457057957596e+03
-5.20457057957596e+03
-5.20457057957596e+03
-5.20457057957596e+03
-5.20457057957596e+03
-5.20457057957596e+03
-5.20457057957596e+03
-5.20457057957596e+03
-5.20457057957596e+03
-5.20457057957596e+03
-5.20457057957596e+03
-5.20457057957596e+03
-5.20457057957596e+03
-5.20457057957596e+03
-5.20457057957596e+03
-5.20457057957596e+03
-5.20457057957596e+03
-5.20457057957596e+03
-5.20457057957596e+03
-5.20457057957596e+03
-5.20457057957596e+03
-5.20457057957596e+03
-5.20457057957596e+03
-5.20457057957596e+03
-5.20457057957596e+03
-5.20457057957596e+03
-5.20457057957596e+03
-5.20457057957596e+03
-5.20457057957596e+03
-5.20457057957596e+03
-5.20457057957596e+03
-5.20457057957596e+03
-5.20457057957596e+03
-5.20457057957596e+03
-5.20457057957596e+03
-5.20457057957596e+03
-5.20457057957596e+03
-5.20457057957596e+03
-5.20457057957596e+03
-5.20457057957596e+03
-5.20457057957596e+03
-5.20457057957596e+03
-5.20457057957596e+03
-5.20457057957596e+03
-5.20457057957596e+03
-5.20457057957596e+03
-5.20457057957596e+03
-5.20457057957596e+03
-5.20457057957596e+03
-5.20457057957596e+03
-5.20457057957596e+03
-5.20457057957596e+03
-5.20457057957596e+03
-5.20457057957596e+03
-5.20457057957596e+03
-5.20457057957596e+03
-5.20457057957596e+03
-5.20457057957596e+03
-5.20457057957596e+03
-5.20457057957596e+03
-5.20457057957596e+03
-5.20457057957596e+03
-5.20457057957596e+03
-5.20457057957596e+03
-5.20457057957596e+03
-5.20457057957596e+03
-5.20457057957596e+03
-5.20457057957596e+03
-5.20457057957596e+03
-5.20457057957596e+03
-5.20457057957596e+03
-5.20457057957596e+03
-5.20457057957596e+03
-5.20457057957596e+03
-5.20457057957596e+03
-5.20457057957596e+03
-5.20457057957596e+03
-5.20457057957596e+03
-5.20457057957596e+03
-5.20457057957596e+03
-5.20457057957596e+03
-5.20457057957596e+03
+0.00000000000000e+00
+0.00000000000000e+00
+0.00000000000000e+00
+0.00000000000000e+00
+0.00000000000000e+00
+0.00000000000000e+00
+0.00000000000000e+00
+0.00000000000000e+00
+0.00000000000000e+00
+0.00000000000000e+00
+0.00000000000000e+00
+0.00000000000000e+00
+0.00000000000000e+00
+0.00000000000000e+00
+0.00000000000000e+00
+0.00000000000000e+00
+0.00000000000000e+00
+0.00000000000000e+00
+0.00000000000000e+00
+0.00000000000000e+00
+0.00000000000000e+00
+0.00000000000000e+00
+0.00000000000000e+00
+0.00000000000000e+00
+0.00000000000000e+00
+0.00000000000000e+00
+0.00000000000000e+00
+0.00000000000000e+00
+0.00000000000000e+00
+0.00000000000000e+00
+0.00000000000000e+00
+0.00000000000000e+00
+0.00000000000000e+00
+0.00000000000000e+00
+0.00000000000000e+00
+0.00000000000000e+00
+0.00000000000000e+00
+0.00000000000000e+00
+0.00000000000000e+00
+0.00000000000000e+00
+0.00000000000000e+00
+0.00000000000000e+00
+0.00000000000000e+00
+0.00000000000000e+00
+0.00000000000000e+00
+0.00000000000000e+00
+0.00000000000000e+00
+0.00000000000000e+00
+0.00000000000000e+00
+0.00000000000000e+00
+0.00000000000000e+00
+0.00000000000000e+00
+0.00000000000000e+00
+0.00000000000000e+00
+0.00000000000000e+00
+0.00000000000000e+00
+0.00000000000000e+00
+0.00000000000000e+00
+0.00000000000000e+00
+0.00000000000000e+00
+0.00000000000000e+00
+0.00000000000000e+00
+0.00000000000000e+00
+0.00000000000000e+00
+0.00000000000000e+00
+0.00000000000000e+00
+0.00000000000000e+00
+0.00000000000000e+00
+0.00000000000000e+00
+0.00000000000000e+00
+0.00000000000000e+00
+0.00000000000000e+00
+0.00000000000000e+00
+0.00000000000000e+00
+0.00000000000000e+00
+0.00000000000000e+00
+0.00000000000000e+00
+0.00000000000000e+00
+0.00000000000000e+00
+0.00000000000000e+00
+0.00000000000000e+00
+0.00000000000000e+00
+0.00000000000000e+00
+0.00000000000000e+00
+0.00000000000000e+00
+0.00000000000000e+00
+0.00000000000000e+00
+0.00000000000000e+00
+0.00000000000000e+00
+0.00000000000000e+00
+0.00000000000000e+00
+0.00000000000000e+00
+0.00000000000000e+00
+0.00000000000000e+00
+0.00000000000000e+00
+0.00000000000000e+00
+0.00000000000000e+00
+0.00000000000000e+00
+0.00000000000000e+00
+0.00000000000000e+00
+0.00000000000000e+00
+0.00000000000000e+00
+0.00000000000000e+00
+0.00000000000000e+00
+0.00000000000000e+00
+0.00000000000000e+00
+0.00000000000000e+00
+0.00000000000000e+00
+0.00000000000000e+00
+0.00000000000000e+00
+0.00000000000000e+00
+0.00000000000000e+00
+0.00000000000000e+00
+0.00000000000000e+00
+0.00000000000000e+00
+0.00000000000000e+00
+0.00000000000000e+00
+0.00000000000000e+00
+0.00000000000000e+00
+0.00000000000000e+00
+0.00000000000000e+00
+0.00000000000000e+00
+0.00000000000000e+00
+0.00000000000000e+00
+0.00000000000000e+00
+0.00000000000000e+00
+0.00000000000000e+00
+0.00000000000000e+00
+0.00000000000000e+00
+0.00000000000000e+00
+0.00000000000000e+00
+0.00000000000000e+00
+0.00000000000000e+00
+0.00000000000000e+00
+0.00000000000000e+00
+0.00000000000000e+00
+0.00000000000000e+00
+0.00000000000000e+00
+0.00000000000000e+00
+0.00000000000000e+00
+0.00000000000000e+00
+0.00000000000000e+00
+0.00000000000000e+00
+0.00000000000000e+00
+0.00000000000000e+00
+0.00000000000000e+00
+0.00000000000000e+00
+0.00000000000000e+00
+0.00000000000000e+00
+0.00000000000000e+00
+0.00000000000000e+00
+0.00000000000000e+00
+0.00000000000000e+00
+0.00000000000000e+00
+0.00000000000000e+00
+0.00000000000000e+00
+0.00000000000000e+00
+0.00000000000000e+00
+0.00000000000000e+00
+0.00000000000000e+00
+0.00000000000000e+00
+0.00000000000000e+00
+0.00000000000000e+00
+0.00000000000000e+00
+0.00000000000000e+00
+0.00000000000000e+00
+0.00000000000000e+00
+0.00000000000000e+00
+0.00000000000000e+00
+0.00000000000000e+00
+0.00000000000000e+00
+0.00000000000000e+00
+0.00000000000000e+00
+0.00000000000000e+00
+0.00000000000000e+00
+0.00000000000000e+00
+0.00000000000000e+00
+0.00000000000000e+00
+0.00000000000000e+00
+0.00000000000000e+00
+0.00000000000000e+00
+0.00000000000000e+00
+0.00000000000000e+00
+0.00000000000000e+00
+0.00000000000000e+00
+0.00000000000000e+00
+0.00000000000000e+00
+0.00000000000000e+00
+0.00000000000000e+00
+0.00000000000000e+00
+0.00000000000000e+00
+0.00000000000000e+00
+0.00000000000000e+00
+0.00000000000000e+00
+0.00000000000000e+00
+0.00000000000000e+00
+0.00000000000000e+00
+0.00000000000000e+00
+0.00000000000000e+00
+0.00000000000000e+00
+0.00000000000000e+00
+0.00000000000000e+00
+0.00000000000000e+00
+0.00000000000000e+00
+0.00000000000000e+00
+0.00000000000000e+00
+0.00000000000000e+00
+0.00000000000000e+00
+0.00000000000000e+00
+0.00000000000000e+00
+0.00000000000000e+00
+0.00000000000000e+00
+0.00000000000000e+00
+0.00000000000000e+00
+0.00000000000000e+00
+0.00000000000000e+00
+0.00000000000000e+00
+0.00000000000000e+00
+0.00000000000000e+00
+0.00000000000000e+00
+0.00000000000000e+00
+0.00000000000000e+00
+0.00000000000000e+00
+0.00000000000000e+00
+0.00000000000000e+00
+0.00000000000000e+00
+0.00000000000000e+00
+0.00000000000000e+00
+0.00000000000000e+00
+0.00000000000000e+00
+0.00000000000000e+00
+0.00000000000000e+00
+0.00000000000000e+00
+0.00000000000000e+00
+0.00000000000000e+00
+0.00000000000000e+00
+0.00000000000000e+00
+0.00000000000000e+00