TITLE = Boundary data
VARIABLES =  "x0" "x1" "p" "u" "v" "T" "rho" "H" "M" "xc0" "xc1" "xc2" "xc3" "xc4"
ZONE   T= "ZONE0 Wall", N=139, E=138, ZONETYPE=FELINESEG, DATAPACKING=BLOCK, STRANDID=1, SOLUTIONTIME=5.51700000000000e+03, VARLOCATION=( [1-2]=NODAL,[3-6]=NODAL,[7-14]=NODAL)
+1.10000000000000e+00
+1.80137700000000e-02
+1.07163162050000e+00
+1.04521824960000e+00
+1.02062515790000e+00
+9.97726900530000e-01
+9.76406678040000e-01
+9.56555740000000e-01
+9.36704819320000e-01
+9.16323082120000e-01
+8.95396334290000e-01
+8.73910002150000e-01
+8.51849122350000e-01
+8.31320160150000e-01
+8.12216738500000e-01
+7.94439867200000e-01
+7.77897430000000e-01
+7.61354995270000e-01
+7.45234795260000e-01
+7.29526052700000e-01
+7.14218265420000e-01
+6.99301199290000e-01
+6.84823989550000e-01
+6.70773666230000e-01
+6.57137641830000e-01
+6.43903700000000e-01
+6.30669783380000e-01
+6.17647687050000e-01
+6.04834020630000e-01
+5.92225448030000e-01
+5.79818686550000e-01
+5.67610506010000e-01
+5.55597727970000e-01
+5.43777224830000e-01
+5.32145919060000e-01
+5.20700782410000e-01
+5.09438835080000e-01
+4.98357144950000e-01
+4.87452826860000e-01
+4.76723041810000e-01
+4.66164996260000e-01
+4.55775941360000e-01
+4.45553172270000e-01
+4.35494027450000e-01
+4.25595887940000e-01
+4.15856176710000e-01
+4.06272357990000e-01
+3.96841936580000e-01
+3.87562457220000e-01
+3.78431503960000e-01
+3.69446699500000e-01
+3.60605704610000e-01
+3.51906217500000e-01
+3.43345973200000e-01
+3.34922743020000e-01
+3.26634333920000e-01
+3.18478587980000e-01
+3.10453381810000e-01
+3.02556626000000e-01
+2.94786264610000e-01
+2.87140274570000e-01
+2.79616665220000e-01
+2.72213477740000e-01
+2.64928784690000e-01
+2.57797843450000e-01
+2.50817408920000e-01
+2.43984304490000e-01
+2.37295420580000e-01
+2.30747713260000e-01
+2.24338202820000e-01
+2.18063972470000e-01
+2.11922166960000e-01
+2.05909991320000e-01
+2.00024709550000e-01
+1.94263643420000e-01
+1.88624171220000e-01
+1.83103726550000e-01
+1.77699797220000e-01
+1.72409924020000e-01
+1.67231699680000e-01
+1.62162767720000e-01
+1.57200821390000e-01
+1.52343602640000e-01
+1.47588901070000e-01
+1.42934552950000e-01
+1.38378440200000e-01
+1.33918489440000e-01
+1.29552671070000e-01
+1.25278998310000e-01
+1.21095526330000e-01
+1.17000351330000e-01
+1.12991609710000e-01
+1.09067477190000e-01
+1.05226167990000e-01
+1.01465934040000e-01
+9.77850641540000e-02
+9.41818832550000e-02
+9.06547516300000e-02
+8.72020641710000e-02
+8.38222496510000e-02
+8.05137700000000e-02
+7.72052851670000e-02
+7.39068100290000e-02
+7.06183143040000e-02
+6.73397677990000e-02
+6.40711404120000e-02
+6.08124021340000e-02
+5.75635230450000e-02
+5.43244733180000e-02
+5.10952232130000e-02
+4.78757430830000e-02
+4.46660033680000e-02
+4.14659746000000e-02
+3.82756273980000e-02
+3.50949324710000e-02
+3.24262341680000e-02
+3.01871163650000e-02
+2.83084294680000e-02
+2.67321548970000e-02
+2.54096133230000e-02
+2.42999613330000e-02
+2.33689300800000e-02
+2.25877669750000e-02
+2.19323477340000e-02
+2.13824313620000e-02
+2.09210350560000e-02
+2.05339097370000e-02
+2.02091000000000e-02
+1.98878224150000e-02
+1.95871238660000e-02
+1.93102464880000e-02
+1.90595167480000e-02
+1.88363491970000e-02
+1.86413709150000e-02
+1.84694302330000e-02
+1.83181816420000e-02
+1.81921852220000e-02
+1.80962223910000e-02
+1.80351572710000e-02
+1.35063020000000e-01
+0.00000000000000e+00
+1.31579821070000e-01
+1.28336667020000e-01
+1.25317015130000e-01
+1.22505462730000e-01
+1.19887668640000e-01
+1.17450280000000e-01
+1.15012892550000e-01
+1.12510329000000e-01
+1.09940846540000e-01
+1.07302655730000e-01
+1.04593919320000e-01
+1.02073278810000e-01
+9.97276727340000e-02
+9.75449466160000e-02
+9.55137900000000e-02
+9.34826345760000e-02
+9.15033230530000e-02
+8.95745321480000e-02
+8.76949723570000e-02
+8.58633870880000e-02
+8.40858093860000e-02
+8.23606467440000e-02
+8.06863536080000e-02
+7.90614300000000e-02
+7.74365094810000e-02
+7.58375972200000e-02
+7.42642769330000e-02
+7.27161389990000e-02
+7.11927803510000e-02
+6.96938043770000e-02
+6.82188208090000e-02
+6.67674456300000e-02
+6.53393009660000e-02
+6.39340149930000e-02
+6.25512218380000e-02
+6.11905614830000e-02
+5.98516796750000e-02
+5.85342278280000e-02
+5.72378629380000e-02
+5.59622474890000e-02
+5.47070493690000e-02
+5.34719417810000e-02
+5.22566031580000e-02
+5.10607170820000e-02
+4.98839721960000e-02
+4.87260621310000e-02
+4.75866854180000e-02
+4.64655454140000e-02
+4.53623502270000e-02
+4.42768126330000e-02
+4.32086500070000e-02
+4.21575842480000e-02
+4.11233417060000e-02
+4.01056531100000e-02
+3.91042535010000e-02
+3.81188821590000e-02
+3.71492825380000e-02
+3.61952021970000e-02
+3.52563927380000e-02
+3.43326097360000e-02
+3.34236126800000e-02
+3.25291649090000e-02
+3.16535954860000e-02
+3.07965059620000e-02
+2.99575062980000e-02
+2.91362146850000e-02
+2.83322573770000e-02
+2.75452685110000e-02
+2.67748899500000e-02
+2.60207711140000e-02
+2.52825688220000e-02
+2.45599471390000e-02
+2.38525772170000e-02
+2.31601371500000e-02
+2.24823118260000e-02
+2.18187927850000e-02
+2.11692780770000e-02
+2.05334721220000e-02
+1.99110855830000e-02
+1.93018352270000e-02
+1.87054438010000e-02
+1.81216399010000e-02
+1.75501578530000e-02
+1.69907375910000e-02
+1.64431245360000e-02
+1.59070694840000e-02
+1.53823284910000e-02
+1.48686627590000e-02
+1.43658385330000e-02
+1.38736269900000e-02
+1.33918041370000e-02
+1.29201507100000e-02
+1.24584520700000e-02
+1.20064981100000e-02
+1.15640831590000e-02
+1.11310058830000e-02
+1.07070692020000e-02
+1.02920801910000e-02
+9.88585000000000e-03
+9.47961927560000e-03
+9.07461758690000e-03
+8.67084121560000e-03
+8.26828645440000e-03
+7.86694960750000e-03
+7.46682699000000e-03
+7.06791492850000e-03
+6.67020976030000e-03
+6.27370783410000e-03
+5.87840550950000e-03
+5.48429915710000e-03
+5.09138515870000e-03
+4.69965990670000e-03
+4.30911980470000e-03
+3.98144496270000e-03
+3.70651595660000e-03
+3.47584228650000e-03
+3.28230016880000e-03
+3.11991253550000e-03
+2.98366444790000e-03
+2.86934822170000e-03
+2.77343348430000e-03
+2.69295814700000e-03
+2.62543692890000e-03
+2.56878460460000e-03
+2.52125160790000e-03
+2.48137000000000e-03
+2.42037365300000e-03
+2.32192681100000e-03
+2.19124315440000e-03
+2.03350957080000e-03
+1.85371828800000e-03
+1.65654221500000e-03
+1.43898706010000e-03
+1.19557473600000e-03
+9.27496414520000e-04
+6.36763119340000e-04
+3.26314002040000e-04
+1.37427441497043e+04
+3.47422757001476e+05
+1.37386077652833e+04
+1.37354581622947e+04
+1.37368326350671e+04
+1.37381575048865e+04
+1.37393045852610e+04
+1.37401646965177e+04
+1.37408241356687e+04
+1.37413406002905e+04
+1.37417031999892e+04
+1.37418466908521e+04
+1.37417389828781e+04
+1.37415102495400e+04
+1.37413316655827e+04
+1.37414517115566e+04
+1.37419013145209e+04
+1.37425103189812e+04
+1.37432943709468e+04
+1.37441476343884e+04
+1.37449237486261e+04
+1.37456606074910e+04
+1.37461152145496e+04
+1.37463223864076e+04
+1.37476829139783e+04
+1.37489276086941e+04
+1.37490273990425e+04
+1.37490321895247e+04
+1.37489791248205e+04
+1.37491725015654e+04
+1.37494625105273e+04
+1.37497859047788e+04
+1.37502606016722e+04
+1.37508211966069e+04
+1.37512896572150e+04
+1.37515611775582e+04
+1.37516273487476e+04
+1.37515906614484e+04
+1.37514143740300e+04
+1.37509722538295e+04
+1.37504104410014e+04
+1.37500059462786e+04
+1.37498865541907e+04
+1.37497706370398e+04
+1.37495926128353e+04
+1.37493267310753e+04
+1.37490495487200e+04
+1.37485684739555e+04
+1.37478225333779e+04
+1.37468731610823e+04
+1.37455758645305e+04
+1.37441930458772e+04
+1.37428314213958e+04
+1.37413621907156e+04
+1.37397340664106e+04
+1.37380455106038e+04
+1.37361493601018e+04
+1.37338526186009e+04
+1.37312395618869e+04
+1.37284515945085e+04
+1.37252621119195e+04
+1.37214370641750e+04
+1.37169781029314e+04
+1.37122488377943e+04
+1.37072569444142e+04
+1.37017133299112e+04
+1.36957478912282e+04
+1.36894350223547e+04
+1.36827332046045e+04
+1.36752899145233e+04
+1.36670343595089e+04
+1.36579383754758e+04
+1.36479223727578e+04
+1.36370523854046e+04
+1.36254291530363e+04
+1.36127173340615e+04
+1.35986352725168e+04
+1.35835783037053e+04
+1.35670148157195e+04
+1.35488219290744e+04
+1.35289763783817e+04
+1.35069742937094e+04
+1.34827931106149e+04
+1.34562482625897e+04
+1.34275496537360e+04
+1.33969765133994e+04
+1.33642980027434e+04
+1.33295468377518e+04
+1.32931964532765e+04
+1.32554284223056e+04
+1.32163633042648e+04
+1.31753215496616e+04
+1.31317475351808e+04
+1.30852205580940e+04
+1.30347271347492e+04
+1.29797946508067e+04
+1.29201072605621e+04
+1.28562824724676e+04
+1.27898309896284e+04
+1.27215926570600e+04
+1.26508238030184e+04
+1.25758217114112e+04
+1.24988346070589e+04
+1.24223432502378e+04
+1.23480540095717e+04
+1.22782255170351e+04
+1.22163795704681e+04
+1.21668743013265e+04
+1.21351485952427e+04
+1.21289938676304e+04
+1.21588226525440e+04
+1.22384334131290e+04
+1.23868396307600e+04
+1.26317605767425e+04
+1.30376420490308e+04
+1.35815561884720e+04
+1.42565482381145e+04
+1.50508186114012e+04
+1.59494597034232e+04
+1.69353692634991e+04
+1.79894552277448e+04
+1.91004628653927e+04
+2.02903408951392e+04
+2.20852085536251e+04
+2.39078306650590e+04
+2.54516158329628e+04
+2.73420457609985e+04
+3.21036665745403e+04
+4.43806246920938e+04
+6.37136799994930e+04
+8.82458428485917e+04
+1.18041269735982e+05
+1.50035513980228e+05
+1.84047096690045e+05
+2.26045912359906e+05
+2.66884195662209e+05
+3.02208153721467e+05
+3.34477727345188e+05
+3.47899330622727e+05
+0.00000000000000e+00
+0.00000000000000e+00
+0.00000000000000e+00
+0.00000000000000e+00
+0.00000000000000e+00
+0.00000000000000e+00
+0.00000000000000e+00
+0.00000000000000e+00
+0.00000000000000e+00
+0.00000000000000e+00
+0.00000000000000e+00
+0.00000000000000e+00
+0.00000000000000e+00
+0.00000000000000e+00
+0.00000000000000e+00
+0.00000000000000e+00
+0.00000000000000e+00
+0.00000000000000e+00
+0.00000000000000e+00
+0.00000000000000e+00
+0.00000000000000e+00
+0.00000000000000e+00
+0.00000000000000e+00
+0.00000000000000e+00
+0.00000000000000e+00
+0.00000000000000e+00
+0.00000000000000e+00
+0.00000000000000e+00
+0.00000000000000e+00
+0.00000000000000e+00
+0.00000000000000e+00
+0.00000000000000e+00
+0.00000000000000e+00
+0.00000000000000e+00
+0.00000000000000e+00
+0.00000000000000e+00
+0.00000000000000e+00
+0.00000000000000e+00
+0.00000000000000e+00
+0.00000000000000e+00
+0.00000000000000e+00
+0.00000000000000e+00
+0.00000000000000e+00
+0.00000000000000e+00
+0.00000000000000e+00
+0.00000000000000e+00
+0.00000000000000e+00
+0.00000000000000e+00
+0.00000000000000e+00
+0.00000000000000e+00
+0.00000000000000e+00
+0.00000000000000e+00
+0.00000000000000e+00
+0.00000000000000e+00
+0.00000000000000e+00
+0.00000000000000e+00
+0.00000000000000e+00
+0.00000000000000e+00
+0.00000000000000e+00
+0.00000000000000e+00
+0.00000000000000e+00
+0.00000000000000e+00
+0.00000000000000e+00
+0.00000000000000e+00
+0.00000000000000e+00
+0.00000000000000e+00
+0.00000000000000e+00
+0.00000000000000e+00
+0.00000000000000e+00
+0.00000000000000e+00
+0.00000000000000e+00
+0.00000000000000e+00
+0.00000000000000e+00
+0.00000000000000e+00
+0.00000000000000e+00
+0.00000000000000e+00
+0.00000000000000e+00
+0.00000000000000e+00
+0.00000000000000e+00
+0.00000000000000e+00
+0.00000000000000e+00
+0.00000000000000e+00
+0.00000000000000e+00
+0.00000000000000e+00
+0.00000000000000e+00
+0.00000000000000e+00
+0.00000000000000e+00
+0.00000000000000e+00
+0.00000000000000e+00
+0.00000000000000e+00
+0.00000000000000e+00
+0.00000000000000e+00
+0.00000000000000e+00
+0.00000000000000e+00
+0.00000000000000e+00
+0.00000000000000e+00
+0.00000000000000e+00
+0.00000000000000e+00
+0.00000000000000e+00
+0.00000000000000e+00
+0.00000000000000e+00
+0.00000000000000e+00
+0.00000000000000e+00
+0.00000000000000e+00
+0.00000000000000e+00
+0.00000000000000e+00
+0.00000000000000e+00
+0.00000000000000e+00
+0.00000000000000e+00
+0.00000000000000e+00
+0.00000000000000e+00
+0.00000000000000e+00
+0.00000000000000e+00
+0.00000000000000e+00
+0.00000000000000e+00
+0.00000000000000e+00
+0.00000000000000e+00
+0.00000000000000e+00
+0.00000000000000e+00
+0.00000000000000e+00
+0.00000000000000e+00
+0.00000000000000e+00
+0.00000000000000e+00
+0.00000000000000e+00
+0.00000000000000e+00
+0.00000000000000e+00
+0.00000000000000e+00
+0.00000000000000e+00
+0.00000000000000e+00
+0.00000000000000e+00
+0.00000000000000e+00
+0.00000000000000e+00
+0.00000000000000e+00
+0.00000000000000e+00
+0.00000000000000e+00
+0.00000000000000e+00
+0.00000000000000e+00
+0.00000000000000e+00
+0.00000000000000e+00
+0.00000000000000e+00
+0.00000000000000e+00
+0.00000000000000e+00
+0.00000000000000e+00
+0.00000000000000e+00
+0.00000000000000e+00
+0.00000000000000e+00
+0.00000000000000e+00
+0.00000000000000e+00
+0.00000000000000e+00
+0.00000000000000e+00
+0.00000000000000e+00
+0.00000000000000e+00
+0.00000000000000e+00
+0.00000000000000e+00
+0.00000000000000e+00
+0.00000000000000e+00
+0.00000000000000e+00
+0.00000000000000e+00
+0.00000000000000e+00
+0.00000000000000e+00
+0.00000000000000e+00
+0.00000000000000e+00
+0.00000000000000e+00
+0.00000000000000e+00
+0.00000000000000e+00
+0.00000000000000e+00
+0.00000000000000e+00
+0.00000000000000e+00
+0.00000000000000e+00
+0.00000000000000e+00
+0.00000000000000e+00
+0.00000000000000e+00
+0.00000000000000e+00
+0.00000000000000e+00
+0.00000000000000e+00
+0.00000000000000e+00
+0.00000000000000e+00
+0.00000000000000e+00
+0.00000000000000e+00
+0.00000000000000e+00
+0.00000000000000e+00
+0.00000000000000e+00
+0.00000000000000e+00
+0.00000000000000e+00
+0.00000000000000e+00
+0.00000000000000e+00
+0.00000000000000e+00
+0.00000000000000e+00
+0.00000000000000e+00
+0.00000000000000e+00
+0.00000000000000e+00
+0.00000000000000e+00
+0.00000000000000e+00
+0.00000000000000e+00
+0.00000000000000e+00
+0.00000000000000e+00
+0.00000000000000e+00
+0.00000000000000e+00
+0.00000000000000e+00
+0.00000000000000e+00
+0.00000000000000e+00
+0.00000000000000e+00
+0.00000000000000e+00
+0.00000000000000e+00
+0.00000000000000e+00
+0.00000000000000e+00
+0.00000000000000e+00
+0.00000000000000e+00
+0.00000000000000e+00
+0.00000000000000e+00
+0.00000000000000e+00
+0.00000000000000e+00
+0.00000000000000e+00
+0.00000000000000e+00
+0.00000000000000e+00
+0.00000000000000e+00
+0.00000000000000e+00
+0.00000000000000e+00
+0.00000000000000e+00
+0.00000000000000e+00
+0.00000000000000e+00
+0.00000000000000e+00
+0.00000000000000e+00
+0.00000000000000e+00
+0.00000000000000e+00
+0.00000000000000e+00
+0.00000000000000e+00
+0.00000000000000e+00
+0.00000000000000e+00
+0.00000000000000e+00
+0.00000000000000e+00
+0.00000000000000e+00
+0.00000000000000e+00
+0.00000000000000e+00
+0.00000000000000e+00
+0.00000000000000e+00
+0.00000000000000e+00
+0.00000000000000e+00
+0.00000000000000e+00
+0.00000000000000e+00
+0.00000000000000e+00
+0.00000000000000e+00
+0.00000000000000e+00
+0.00000000000000e+00
+0.00000000000000e+00
+0.00000000000000e+00
+0.00000000000000e+00
+0.00000000000000e+00
+0.00000000000000e+00
+0.00000000000000e+00
+0.00000000000000e+00
+0.00000000000000e+00
+0.00000000000000e+00
+0.00000000000000e+00
+0.00000000000000e+00
+0.00000000000000e+00
+0.00000000000000e+00
+0.00000000000000e+00
+0.00000000000000e+00
+0.00000000000000e+00
+0.00000000000000e+00
+0.00000000000000e+00
+0.00000000000000e+00
+0.00000000000000e+00
+0.00000000000000e+00
+0.00000000000000e+00
+0.00000000000000e+00
+0.00000000000000e+00
+0.00000000000000e+00
+0.00000000000000e+00
+0.00000000000000e+00
+0.00000000000000e+00
+0.00000000000000e+00
+0.00000000000000e+00
+0.00000000000000e+00
+0.00000000000000e+00
+0.00000000000000e+00
+0.00000000000000e+00
+2.93000000000000e+02
+2.93000000000000e+02
+2.93000000000000e+02
+2.93000000000000e+02
+2.93000000000000e+02
+2.93000000000000e+02
+2.93000000000000e+02
+2.93000000000000e+02
+2.93000000000000e+02
+2.93000000000000e+02
+2.93000000000000e+02
+2.93000000000000e+02
+2.93000000000000e+02
+2.93000000000000e+02
+2.93000000000000e+02
+2.93000000000000e+02
+2.93000000000000e+02
+2.93000000000000e+02
+2.93000000000000e+02
+2.93000000000000e+02
+2.93000000000000e+02
+2.93000000000000e+02
+2.93000000000000e+02
+2.93000000000000e+02
+2.93000000000000e+02
+2.93000000000000e+02
+2.93000000000000e+02
+2.93000000000000e+02
+2.93000000000000e+02
+2.93000000000000e+02
+2.93000000000000e+02
+2.93000000000000e+02
+2.93000000000000e+02
+2.93000000000000e+02
+2.93000000000000e+02
+2.93000000000000e+02
+2.93000000000000e+02
+2.93000000000000e+02
+2.93000000000000e+02
+2.93000000000000e+02
+2.93000000000000e+02
+2.93000000000000e+02
+2.93000000000000e+02
+2.93000000000000e+02
+2.93000000000000e+02
+2.93000000000000e+02
+2.93000000000000e+02
+2.93000000000000e+02
+2.93000000000000e+02
+2.93000000000000e+02
+2.93000000000000e+02
+2.93000000000000e+02
+2.93000000000000e+02
+2.93000000000000e+02
+2.93000000000000e+02
+2.93000000000000e+02
+2.93000000000000e+02
+2.93000000000000e+02
+2.93000000000000e+02
+2.93000000000000e+02
+2.93000000000000e+02
+2.93000000000000e+02
+2.93000000000000e+02
+2.93000000000000e+02
+2.93000000000000e+02
+2.93000000000000e+02
+2.93000000000000e+02
+2.93000000000000e+02
+2.93000000000000e+02
+2.93000000000000e+02
+2.93000000000000e+02
+2.93000000000000e+02
+2.93000000000000e+02
+2.93000000000000e+02
+2.93000000000000e+02
+2.93000000000000e+02
+2.93000000000000e+02
+2.93000000000000e+02
+2.93000000000000e+02
+2.93000000000000e+02
+2.93000000000000e+02
+2.93000000000000e+02
+2.93000000000000e+02
+2.93000000000000e+02
+2.93000000000000e+02
+2.93000000000000e+02
+2.93000000000000e+02
+2.93000000000000e+02
+2.93000000000000e+02
+2.93000000000000e+02
+2.93000000000000e+02
+2.93000000000000e+02
+2.93000000000000e+02
+2.93000000000000e+02
+2.93000000000000e+02
+2.93000000000000e+02
+2.93000000000000e+02
+2.93000000000000e+02
+2.93000000000000e+02
+2.93000000000000e+02
+2.93000000000000e+02
+2.93000000000000e+02
+2.93000000000000e+02
+2.93000000000000e+02
+2.93000000000000e+02
+2.93000000000000e+02
+2.93000000000000e+02
+2.93000000000000e+02
+2.93000000000000e+02
+2.93000000000000e+02
+2.93000000000000e+02
+2.93000000000000e+02
+2.93000000000000e+02
+2.93000000000000e+02
+2.93000000000000e+02
+2.93000000000000e+02
+2.93000000000000e+02
+2.93000000000000e+02
+2.93000000000000e+02
+2.93000000000000e+02
+2.93000000000000e+02
+2.93000000000000e+02
+2.93000000000000e+02
+2.93000000000000e+02
+2.93000000000000e+02
+2.93000000000000e+02
+2.93000000000000e+02
+2.93000000000000e+02
+2.93000000000000e+02
+2.93000000000000e+02
+2.93000000000000e+02
+2.93000000000000e+02
+2.93000000000000e+02
+2.93000000000000e+02
+2.93000000000000e+02
+2.93000000000000e+02
+2.93000000000000e+02
+2.93000000000000e+02
+2.93000000000000e+02
+1.62750390355578e-01
+4.11440311370547e+00
+1.62701404638326e-01
+1.62664105019685e-01
+1.62680382407796e-01
+1.62696072365925e-01
+1.62709656827419e-01
+1.62719842816566e-01
+1.62727652317935e-01
+1.62733768623230e-01
+1.62738062761421e-01
+1.62739762072250e-01
+1.62738486525341e-01
+1.62735777718450e-01
+1.62733662812689e-01
+1.62735084474105e-01
+1.62740408960770e-01
+1.62747621182183e-01
+1.62756906428424e-01
+1.62767011321354e-01
+1.62776202563930e-01
+1.62784928919205e-01
+1.62790312667563e-01
+1.62792766129579e-01
+1.62808878369667e-01
+1.62823618842797e-01
+1.62824800624106e-01
+1.62824857356068e-01
+1.62824228929807e-01
+1.62826519021245e-01
+1.62829953493374e-01
+1.62833783335515e-01
+1.62839405000581e-01
+1.62846043925344e-01
+1.62851591736321e-01
+1.62854807254369e-01
+1.62855590896034e-01
+1.62855156421507e-01
+1.62853068712832e-01
+1.62847832841857e-01
+1.62841179494019e-01
+1.62836389208083e-01
+1.62834975290404e-01
+1.62833602525158e-01
+1.62831494248349e-01
+1.62828345506020e-01
+1.62825062934792e-01
+1.62819365738886e-01
+1.62810531832145e-01
+1.62799288756525e-01
+1.62783925338716e-01
+1.62767549113330e-01
+1.62751423882921e-01
+1.62734024310891e-01
+1.62714743018646e-01
+1.62694746057799e-01
+1.62672290627427e-01
+1.62645091141521e-01
+1.62614145647986e-01
+1.62581128750183e-01
+1.62543356851737e-01
+1.62498058183089e-01
+1.62445252304215e-01
+1.62389245313269e-01
+1.62330128110229e-01
+1.62264477071797e-01
+1.62193830520880e-01
+1.62119069478818e-01
+1.62039702254700e-01
+1.61951554039682e-01
+1.61853786462365e-01
+1.61746065985586e-01
+1.61627450057471e-01
+1.61498720695590e-01
+1.61361070923133e-01
+1.61210529409901e-01
+1.61043760605326e-01
+1.60865446323627e-01
+1.60669290875634e-01
+1.60453839043675e-01
+1.60218815304103e-01
+1.59958252506014e-01
+1.59671883426810e-01
+1.59357522311521e-01
+1.59017654979152e-01
+1.58655588242700e-01
+1.58268588360611e-01
+1.57857042776550e-01
+1.57426558209678e-01
+1.56979284963773e-01
+1.56516650780878e-01
+1.56030608000064e-01
+1.55514576573671e-01
+1.54963574270169e-01
+1.54365598766132e-01
+1.53715053059434e-01
+1.53008196702669e-01
+1.52252342626977e-01
+1.51465381547445e-01
+1.50657259447395e-01
+1.49819169289066e-01
+1.48930946416430e-01
+1.48019215749746e-01
+1.47113356043281e-01
+1.46233575208688e-01
+1.45406621414419e-01
+1.44674202049258e-01
+1.44087928901066e-01
+1.43712212741819e-01
+1.43639324509997e-01
+1.43992576112126e-01
+1.44935377798643e-01
+1.46692899410596e-01
+1.49593410336994e-01
+1.54400119050583e-01
+1.60841499138117e-01
+1.68835187907226e-01
+1.78241447086042e-01
+1.88883731255997e-01
+2.00559504595712e-01
+2.13042666639664e-01
+2.26199931647694e-01
+2.40291230423779e-01
+2.61547204403435e-01
+2.83131864415675e-01
+3.01414358505976e-01
+3.23802042172073e-01
+3.80192209789786e-01
+5.25583821846675e-01
+7.54538262369596e-01
+1.04506386893437e+00
+1.39792042392148e+00
+1.77681678429610e+00
+2.17960376063320e+00
+2.67698067242624e+00
+3.16061381559616e+00
+3.57894278253483e+00
+3.96109977000823e+00
+4.12004700418665e+00
-5.20457057957596e+03
-5.20457057957596e+03
-5.20457057957596e+03
-5.20457057957596e+03
-5.20457057957596e+03
-5.20457057957596e+03
-5.20457057957596e+03
-5.20457057957596e+03
-5.20457057957596e+03
-5.20457057957596e+03
-5.20457057957596e+03
-5.20457057957596e+03
-5.20457057957596e+03
-5.20457057957596e+03
-5.20457057957596e+03
-5.20457057957596e+03
-5.20457057957596e+03
-5.20457057957596e+03
-5.20457057957596e+03
-5.20457057957596e+03
-5.20457057957596e+03
-5.20457057957596e+03
-5.20457057957596e+03
-5.20457057957596e+03
-5.20457057957596e+03
-5.20457057957596e+03
-5.20457057957596e+03
-5.20457057957596e+03
-5.20457057957596e+03
-5.20457057957596e+03
-5.20457057957596e+03
-5.20457057957596e+03
-5.20457057957596e+03
-5.20457057957596e+03
-5.20457057957596e+03
-5.20457057957596e+03
-5.20457057957596e+03
-5.20457057957596e+03
-5.20457057957596e+03
-5.20457057957596e+03
-5.20457057957596e+03
-5.20457057957596e+03
-5.20457057957596e+03
-5.20457057957596e+03
-5.20457057957596e+03
-5.20457057957596e+03
-5.20457057957596e+03
-5.20457057957596e+03
-5.20457057957596e+03
-5.20457057957596e+03
-5.20457057957596e+03
-5.20457057957596e+03
-5.20457057957596e+03
-5.20457057957596e+03
-5.20457057957596e+03
-5.20457057957596e+03
-5.20457057957596e+03
-5.20457057957596e+03
-5.20457057957596e+03
-5.20457057957596e+03
-5.20457057957596e+03
-5.20457057957596e+03
-5.20457057957596e+03
-5.20457057957596e+03
-5.20457057957596e+03
-5.20457057957596e+03
-5.20457057957596e+03
-5.20457057957596e+03
-5.20457057957596e+03
-5.20457057957596e+03
-5.20457057957596e+03
-5.20457057957596e+03
-5.20457057957596e+03
-5.20457057957596e+03
-5.20457057957596e+03
-5.20457057957596e+03
-5.20457057957596e+03
-5.20457057957596e+03
-5.20457057957596e+03
-5.20457057957596e+03
-5.20457057957596e+03
-5.20457057957596e+03
-5.20457057957596e+03
-5.20457057957596e+03
-5.20457057957596e+03
-5.20457057957596e+03
-5.20457057957596e+03
-5.20457057957596e+03
-5.20457057957596e+03
-5.20457057957596e+03
-5.20457057957596e+03
-5.20457057957596e+03
-5.20457057957596e+03
-5.20457057957596e+03
-5.20457057957596e+03
-5.20457057957596e+03
-5.20457057957596e+03
-5.20457057957596e+03
-5.20457057957596e+03
-5.20457057957596e+03
-5.20457057957596e+03
-5.20457057957596e+03
-5.20457057957596e+03
-5.20457057957596e+03
-5.20457057957596e+03
-5.20457057957596e+03
-5.20457057957596e+03
-5.20457057957596e+03
-5.20457057957596e+03
-5.20457057957596e+03
-5.20457057957596e+03
-5.20457057957596e+03
-5.20457057957596e+03
-5.20457057957596e+03
-5.20457057957596e+03
-5.20457057957596e+03
-5.20457057957596e+03
-5.20457057957596e+03
-5.20457057957596e+03
-5.20457057957596e+03
-5.20457057957596e+03
-5.20457057957596e+03
-5.20457057957596e+03
-5.20457057957596e+03
-5.20457057957596e+03
-5.20457057957596e+03
-5.20457057957596e+03
-5.20457057957596e+03
-5.20457057957596e+03
-5.20457057957596e+03
-5.20457057957596e+03
-5.20457057957596e+03
-5.20457057957596e+03
-5.20457057957596e+03
-5.20457057957596e+03
-5.20457057957596e+03
-5.20457057957596e+03
-5.20457057957596e+03
-5.20457057957596e+03
+0.00000000000000e+00
+0.00000000000000e+00
+0.00000000000000e+00
+0.00000000000000e+00
+0.00000000000000e+00
+0.00000000000000e+00
+0.00000000000000e+00
+0.00000000000000e+00
+0.00000000000000e+00
+0.00000000000000e+00
+0.00000000000000e+00
+0.00000000000000e+00
+0.00000000000000e+00
+0.00000000000000e+00
+0.00000000000000e+00
+0.00000000000000e+00
+0.00000000000000e+00
+0.00000000000000e+00
+0.00000000000000e+00
+0.00000000000000e+00
+0.00000000000000e+00
+0.00000000000000e+00
+0.00000000000000e+00
+0.00000000000000e+00
+0.00000000000000e+00
+0.00000000000000e+00
+0.00000000000000e+00
+0.00000000000000e+00
+0.00000000000000e+00
+0.00000000000000e+00
+0.00000000000000e+00
+0.00000000000000e+00
+0.00000000000000e+00
+0.00000000000000e+00
+0.00000000000000e+00
+0.00000000000000e+00
+0.00000000000000e+00
+0.00000000000000e+00
+0.00000000000000e+00
+0.00000000000000e+00
+0.00000000000000e+00
+0.00000000000000e+00
+0.00000000000000e+00
+0.00000000000000e+00
+0.00000000000000e+00
+0.00000000000000e+00
+0.00000000000000e+00
+0.00000000000000e+00
+0.00000000000000e+00
+0.00000000000000e+00
+0.00000000000000e+00
+0.00000000000000e+00
+0.00000000000000e+00
+0.00000000000000e+00
+0.00000000000000e+00
+0.00000000000000e+00
+0.00000000000000e+00
+0.00000000000000e+00
+0.00000000000000e+00
+0.00000000000000e+00
+0.00000000000000e+00
+0.00000000000000e+00
+0.00000000000000e+00
+0.00000000000000e+00
+0.00000000000000e+00
+0.00000000000000e+00
+0.00000000000000e+00
+0.00000000000000e+00
+0.00000000000000e+00
+0.00000000000000e+00
+0.00000000000000e+00
+0.00000000000000e+00
+0.00000000000000e+00
+0.00000000000000e+00
+0.00000000000000e+00
+0.00000000000000e+00
+0.00000000000000e+00
+0.00000000000000e+00
+0.00000000000000e+00
+0.00000000000000e+00
+0.00000000000000e+00
+0.00000000000000e+00
+0.00000000000000e+00
+0.00000000000000e+00
+0.00000000000000e+00
+0.00000000000000e+00
+0.00000000000000e+00
+0.00000000000000e+00
+0.00000000000000e+00
+0.00000000000000e+00
+0.00000000000000e+00
+0.00000000000000e+00
+0.00000000000000e+00
+0.00000000000000e+00
+0.00000000000000e+00
+0.00000000000000e+00
+0.00000000000000e+00
+0.00000000000000e+00
+0.00000000000000e+00
+0.00000000000000e+00
+0.00000000000000e+00
+0.00000000000000e+00
+0.00000000000000e+00
+0.00000000000000e+00
+0.00000000000000e+00
+0.00000000000000e+00
+0.00000000000000e+00
+0.00000000000000e+00
+0.00000000000000e+00
+0.00000000000000e+00
+0.00000000000000e+00
+0.00000000000000e+00
+0.00000000000000e+00
+0.00000000000000e+00
+0.00000000000000e+00
+0.00000000000000e+00
+0.00000000000000e+00
+0.00000000000000e+00
+0.00000000000000e+00
+0.00000000000000e+00
+0.00000000000000e+00
+0.00000000000000e+00
+0.00000000000000e+00
+0.00000000000000e+00
+0.00000000000000e+00
+0.00000000000000e+00
+0.00000000000000e+00
+0.00000000000000e+00
+0.00000000000000e+00
+0.00000000000000e+00
+0.00000000000000e+00
+0.00000000000000e+00
+0.00000000000000e+00
+0.00000000000000e+00
+0.00000000000000e+00
+0.00000000000000e+00
+0.00000000000000e+00
+0.00000000000000e+00
+0.00000000000000e+00
+0.00000000000000e+00
+0.00000000000000e+00
+0.00000000000000e+00
+0.00000000000000e+00
+0.00000000000000e+00
+0.00000000000000e+00
+0.00000000000000e+00
+0.00000000000000e+00
+0.00000000000000e+00
+0.00000000000000e+00
+0.00000000000000e+00
+0.00000000000000e+00
+0.00000000000000e+00
+0.00000000000000e+00
+0.00000000000000e+00
+0.00000000000000e+00
+0.00000000000000e+00
+0.00000000000000e+00
+0.00000000000000e+00
+0.00000000000000e+00
+0.00000000000000e+00
+0.00000000000000e+00
+0.00000000000000e+00
+0.00000000000000e+00
+0.00000000000000e+00
+0.00000000000000e+00
+0.00000000000000e+00
+0.00000000000000e+00
+0.00000000000000e+00
+0.00000000000000e+00
+0.00000000000000e+00
+0.00000000000000e+00
+0.00000000000000e+00
+0.00000000000000e+00
+0.00000000000000e+00
+0.00000000000000e+00
+0.00000000000000e+00
+0.00000000000000e+00
+0.00000000000000e+00
+0.00000000000000e+00
+0.00000000000000e+00
+0.00000000000000e+00
+0.00000000000000e+00
+0.00000000000000e+00
+0.00000000000000e+00
+0.00000000000000e+00
+0.00000000000000e+00
+0.00000000000000e+00
+0.00000000000000e+00
+0.00000000000000e+00
+0.00000000000000e+00
+0.00000000000000e+00
+0.00000000000000e+00
+0.00000000000000e+00
+0.00000000000000e+00
+0.00000000000000e+00
+0.00000000000000e+00
+0.00000000000000e+00
+0.00000000000000e+00
+0.00000000000000e+00
+0.00000000000000e+00
+0.00000000000000e+00
+0.00000000000000e+00
+0.00000000000000e+00
+0.00000000000000e+00
+0.00000000000000e+00
+0.00000000000000e+00
+0.00000000000000e+00
+0.00000000000000e+00
+0.00000000000000e+00
+0.00000000000000e+00
+0.00000000000000e+00
+0.00000000000000e+00
+0.00000000000000e+00
+0.00000000000000e+00
+0.00000000000000e+00
+0.00000000000000e+00
+0.00000000000000e+00
+0.00000000000000e+00
+0.00000000000000e+00
+0.00000000000000e+00
+0.00000000000000e+00
+0.00000000000000e+00
+0.00000000000000e+00
+0.00000000000000e+00
+0.00000000000000e+00
+0.00000000000000e+00
+0.00000000000000e+00
+0.00000000000000e+00
+0.00000000000000e+00
+0.00000000000000e+00
+0.00000000000000e+00
+0.00000000000000e+00
+0.00000000000000e+00
+0.00000000000000e+00
+0.00000000000000e+00
+0.00000000000000e+00
+0.00000000000000e+00
+0.00000000000000e+00