TITLE = Boundary data
VARIABLES =  "x0" "x1" "p" "u" "v" "T" "rho" "H" "M" "xc0" "xc1" "xc2" "xc3" "xc4"
ZONE   T= "ZONE0 Wall", N=139, E=138, ZONETYPE=FELINESEG, DATAPACKING=BLOCK, STRANDID=1, SOLUTIONTIME=5.00000000000000e+02, VARLOCATION=( [1-2]=NODAL,[3-6]=NODAL,[7-14]=NODAL)
+1.10000000000000e+00
+1.80137700000000e-02
+1.07163162050000e+00
+1.04521824960000e+00
+1.02062515790000e+00
+9.97726900530000e-01
+9.76406678040000e-01
+9.56555740000000e-01
+9.36704819320000e-01
+9.16323082120000e-01
+8.95396334290000e-01
+8.73910002150000e-01
+8.51849122350000e-01
+8.31320160150000e-01
+8.12216738500000e-01
+7.94439867200000e-01
+7.77897430000000e-01
+7.61354995270000e-01
+7.45234795260000e-01
+7.29526052700000e-01
+7.14218265420000e-01
+6.99301199290000e-01
+6.84823989550000e-01
+6.70773666230000e-01
+6.57137641830000e-01
+6.43903700000000e-01
+6.30669783380000e-01
+6.17647687050000e-01
+6.04834020630000e-01
+5.92225448030000e-01
+5.79818686550000e-01
+5.67610506010000e-01
+5.55597727970000e-01
+5.43777224830000e-01
+5.32145919060000e-01
+5.20700782410000e-01
+5.09438835080000e-01
+4.98357144950000e-01
+4.87452826860000e-01
+4.76723041810000e-01
+4.66164996260000e-01
+4.55775941360000e-01
+4.45553172270000e-01
+4.35494027450000e-01
+4.25595887940000e-01
+4.15856176710000e-01
+4.06272357990000e-01
+3.96841936580000e-01
+3.87562457220000e-01
+3.78431503960000e-01
+3.69446699500000e-01
+3.60605704610000e-01
+3.51906217500000e-01
+3.43345973200000e-01
+3.34922743020000e-01
+3.26634333920000e-01
+3.18478587980000e-01
+3.10453381810000e-01
+3.02556626000000e-01
+2.94786264610000e-01
+2.87140274570000e-01
+2.79616665220000e-01
+2.72213477740000e-01
+2.64928784690000e-01
+2.57797843450000e-01
+2.50817408920000e-01
+2.43984304490000e-01
+2.37295420580000e-01
+2.30747713260000e-01
+2.24338202820000e-01
+2.18063972470000e-01
+2.11922166960000e-01
+2.05909991320000e-01
+2.00024709550000e-01
+1.94263643420000e-01
+1.88624171220000e-01
+1.83103726550000e-01
+1.77699797220000e-01
+1.72409924020000e-01
+1.67231699680000e-01
+1.62162767720000e-01
+1.57200821390000e-01
+1.52343602640000e-01
+1.47588901070000e-01
+1.42934552950000e-01
+1.38378440200000e-01
+1.33918489440000e-01
+1.29552671070000e-01
+1.25278998310000e-01
+1.21095526330000e-01
+1.17000351330000e-01
+1.12991609710000e-01
+1.09067477190000e-01
+1.05226167990000e-01
+1.01465934040000e-01
+9.77850641540000e-02
+9.41818832550000e-02
+9.06547516300000e-02
+8.72020641710000e-02
+8.38222496510000e-02
+8.05137700000000e-02
+7.72052851670000e-02
+7.39068100290000e-02
+7.06183143040000e-02
+6.73397677990000e-02
+6.40711404120000e-02
+6.08124021340000e-02
+5.75635230450000e-02
+5.43244733180000e-02
+5.10952232130000e-02
+4.78757430830000e-02
+4.46660033680000e-02
+4.14659746000000e-02
+3.82756273980000e-02
+3.50949324710000e-02
+3.24262341680000e-02
+3.01871163650000e-02
+2.83084294680000e-02
+2.67321548970000e-02
+2.54096133230000e-02
+2.42999613330000e-02
+2.33689300800000e-02
+2.25877669750000e-02
+2.19323477340000e-02
+2.13824313620000e-02
+2.09210350560000e-02
+2.05339097370000e-02
+2.02091000000000e-02
+1.98878224150000e-02
+1.95871238660000e-02
+1.93102464880000e-02
+1.90595167480000e-02
+1.88363491970000e-02
+1.86413709150000e-02
+1.84694302330000e-02
+1.83181816420000e-02
+1.81921852220000e-02
+1.80962223910000e-02
+1.80351572710000e-02
+1.35063020000000e-01
+0.00000000000000e+00
+1.31579821070000e-01
+1.28336667020000e-01
+1.25317015130000e-01
+1.22505462730000e-01
+1.19887668640000e-01
+1.17450280000000e-01
+1.15012892550000e-01
+1.12510329000000e-01
+1.09940846540000e-01
+1.07302655730000e-01
+1.04593919320000e-01
+1.02073278810000e-01
+9.97276727340000e-02
+9.75449466160000e-02
+9.55137900000000e-02
+9.34826345760000e-02
+9.15033230530000e-02
+8.95745321480000e-02
+8.76949723570000e-02
+8.58633870880000e-02
+8.40858093860000e-02
+8.23606467440000e-02
+8.06863536080000e-02
+7.90614300000000e-02
+7.74365094810000e-02
+7.58375972200000e-02
+7.42642769330000e-02
+7.27161389990000e-02
+7.11927803510000e-02
+6.96938043770000e-02
+6.82188208090000e-02
+6.67674456300000e-02
+6.53393009660000e-02
+6.39340149930000e-02
+6.25512218380000e-02
+6.11905614830000e-02
+5.98516796750000e-02
+5.85342278280000e-02
+5.72378629380000e-02
+5.59622474890000e-02
+5.47070493690000e-02
+5.34719417810000e-02
+5.22566031580000e-02
+5.10607170820000e-02
+4.98839721960000e-02
+4.87260621310000e-02
+4.75866854180000e-02
+4.64655454140000e-02
+4.53623502270000e-02
+4.42768126330000e-02
+4.32086500070000e-02
+4.21575842480000e-02
+4.11233417060000e-02
+4.01056531100000e-02
+3.91042535010000e-02
+3.81188821590000e-02
+3.71492825380000e-02
+3.61952021970000e-02
+3.52563927380000e-02
+3.43326097360000e-02
+3.34236126800000e-02
+3.25291649090000e-02
+3.16535954860000e-02
+3.07965059620000e-02
+2.99575062980000e-02
+2.91362146850000e-02
+2.83322573770000e-02
+2.75452685110000e-02
+2.67748899500000e-02
+2.60207711140000e-02
+2.52825688220000e-02
+2.45599471390000e-02
+2.38525772170000e-02
+2.31601371500000e-02
+2.24823118260000e-02
+2.18187927850000e-02
+2.11692780770000e-02
+2.05334721220000e-02
+1.99110855830000e-02
+1.93018352270000e-02
+1.87054438010000e-02
+1.81216399010000e-02
+1.75501578530000e-02
+1.69907375910000e-02
+1.64431245360000e-02
+1.59070694840000e-02
+1.53823284910000e-02
+1.48686627590000e-02
+1.43658385330000e-02
+1.38736269900000e-02
+1.33918041370000e-02
+1.29201507100000e-02
+1.24584520700000e-02
+1.20064981100000e-02
+1.15640831590000e-02
+1.11310058830000e-02
+1.07070692020000e-02
+1.02920801910000e-02
+9.88585000000000e-03
+9.47961927560000e-03
+9.07461758690000e-03
+8.67084121560000e-03
+8.26828645440000e-03
+7.86694960750000e-03
+7.46682699000000e-03
+7.06791492850000e-03
+6.67020976030000e-03
+6.27370783410000e-03
+5.87840550950000e-03
+5.48429915710000e-03
+5.09138515870000e-03
+4.69965990670000e-03
+4.30911980470000e-03
+3.98144496270000e-03
+3.70651595660000e-03
+3.47584228650000e-03
+3.28230016880000e-03
+3.11991253550000e-03
+2.98366444790000e-03
+2.86934822170000e-03
+2.77343348430000e-03
+2.69295814700000e-03
+2.62543692890000e-03
+2.56878460460000e-03
+2.52125160790000e-03
+2.48137000000000e-03
+2.42037365300000e-03
+2.32192681100000e-03
+2.19124315440000e-03
+2.03350957080000e-03
+1.85371828800000e-03
+1.65654221500000e-03
+1.43898706010000e-03
+1.19557473600000e-03
+9.27496414520000e-04
+6.36763119340000e-04
+3.26314002040000e-04
+1.48449876060565e+04
+3.78425036904560e+05
+1.48396810348431e+04
+1.48347055144235e+04
+1.48340889593887e+04
+1.48324373107301e+04
+1.48298714134431e+04
+1.48262701326636e+04
+1.48224775924058e+04
+1.48193950935725e+04
+1.48172669739018e+04
+1.48158595946070e+04
+1.48143330948790e+04
+1.48119924800775e+04
+1.48083284221500e+04
+1.48042464672816e+04
+1.48008180005229e+04
+1.47967172374455e+04
+1.47926303021755e+04
+1.47885264213038e+04
+1.47835970124501e+04
+1.47794531228964e+04
+1.47747775279799e+04
+1.47692968299495e+04
+1.47640156563885e+04
+1.47585563005420e+04
+1.47536356258253e+04
+1.47482847568531e+04
+1.47419897725512e+04
+1.47364424310614e+04
+1.47306425290740e+04
+1.47239893166623e+04
+1.47174182309690e+04
+1.47111146654734e+04
+1.47045573744659e+04
+1.46975149219107e+04
+1.46900439271622e+04
+1.46828890599355e+04
+1.46759170671984e+04
+1.46678772431725e+04
+1.46588841538133e+04
+1.46500654889232e+04
+1.46423261010357e+04
+1.46340231914761e+04
+1.46249495244103e+04
+1.46151486132973e+04
+1.46057201968668e+04
+1.45960136074588e+04
+1.45858827937264e+04
+1.45760111051646e+04
+1.45650986970482e+04
+1.45543288796121e+04
+1.45442067515418e+04
+1.45337726518398e+04
+1.45225053706596e+04
+1.45112631244208e+04
+1.44996542709410e+04
+1.44868205749945e+04
+1.44735219740137e+04
+1.44612703085087e+04
+1.44492949976387e+04
+1.44362670780364e+04
+1.44216406252452e+04
+1.44073680055988e+04
+1.43936002923722e+04
+1.43784261015102e+04
+1.43625661023104e+04
+1.43467643855443e+04
+1.43316543321441e+04
+1.43157899004312e+04
+1.42992630297050e+04
+1.42824036103306e+04
+1.42649674209376e+04
+1.42474035072532e+04
+1.42308977118614e+04
+1.42141327792092e+04
+1.41954803485020e+04
+1.41785265001941e+04
+1.41611680913984e+04
+1.41437114892642e+04
+1.41276289326017e+04
+1.41109242896031e+04
+1.40944120860032e+04
+1.40772910472648e+04
+1.40606476781905e+04
+1.40462136582208e+04
+1.40321537238056e+04
+1.40173765278480e+04
+1.40035559250425e+04
+1.39910066036437e+04
+1.39813823284771e+04
+1.39726208061830e+04
+1.39642991144193e+04
+1.39579529708545e+04
+1.39517968442654e+04
+1.39466824796766e+04
+1.39412812510504e+04
+1.39366346043823e+04
+1.39376552043768e+04
+1.39435524310104e+04
+1.39550492390462e+04
+1.39718252995297e+04
+1.39904628425021e+04
+1.40141374809272e+04
+1.40426951902640e+04
+1.40749514325682e+04
+1.41126345883977e+04
+1.41568421244234e+04
+1.42067161385298e+04
+1.42639935681374e+04
+1.43312405723825e+04
+1.44107917866686e+04
+1.45046544457059e+04
+1.46146409310428e+04
+1.47469325100850e+04
+1.48870902909083e+04
+1.50483160056568e+04
+1.52495423282693e+04
+1.55072335254046e+04
+1.58435793633385e+04
+1.62687930008944e+04
+1.67786904891600e+04
+1.73683958805674e+04
+1.80501953069434e+04
+1.88997866694007e+04
+2.00731103549757e+04
+2.18928314013493e+04
+2.69262636988953e+04
+4.05581124715133e+04
+6.32317922846286e+04
+9.32760173864194e+04
+1.29770287102566e+05
+1.70428059248081e+05
+2.12410515322455e+05
+2.54282495438546e+05
+2.94720495321553e+05
+3.31321463467838e+05
+3.59984279267158e+05
+3.75010357797017e+05
+0.00000000000000e+00
+0.00000000000000e+00
+0.00000000000000e+00
+0.00000000000000e+00
+0.00000000000000e+00
+0.00000000000000e+00
+0.00000000000000e+00
+0.00000000000000e+00
+0.00000000000000e+00
+0.00000000000000e+00
+0.00000000000000e+00
+0.00000000000000e+00
+0.00000000000000e+00
+0.00000000000000e+00
+0.00000000000000e+00
+0.00000000000000e+00
+0.00000000000000e+00
+0.00000000000000e+00
+0.00000000000000e+00
+0.00000000000000e+00
+0.00000000000000e+00
+0.00000000000000e+00
+0.00000000000000e+00
+0.00000000000000e+00
+0.00000000000000e+00
+0.00000000000000e+00
+0.00000000000000e+00
+0.00000000000000e+00
+0.00000000000000e+00
+0.00000000000000e+00
+0.00000000000000e+00
+0.00000000000000e+00
+0.00000000000000e+00
+0.00000000000000e+00
+0.00000000000000e+00
+0.00000000000000e+00
+0.00000000000000e+00
+0.00000000000000e+00
+0.00000000000000e+00
+0.00000000000000e+00
+0.00000000000000e+00
+0.00000000000000e+00
+0.00000000000000e+00
+0.00000000000000e+00
+0.00000000000000e+00
+0.00000000000000e+00
+0.00000000000000e+00
+0.00000000000000e+00
+0.00000000000000e+00
+0.00000000000000e+00
+0.00000000000000e+00
+0.00000000000000e+00
+0.00000000000000e+00
+0.00000000000000e+00
+0.00000000000000e+00
+0.00000000000000e+00
+0.00000000000000e+00
+0.00000000000000e+00
+0.00000000000000e+00
+0.00000000000000e+00
+0.00000000000000e+00
+0.00000000000000e+00
+0.00000000000000e+00
+0.00000000000000e+00
+0.00000000000000e+00
+0.00000000000000e+00
+0.00000000000000e+00
+0.00000000000000e+00
+0.00000000000000e+00
+0.00000000000000e+00
+0.00000000000000e+00
+0.00000000000000e+00
+0.00000000000000e+00
+0.00000000000000e+00
+0.00000000000000e+00
+0.00000000000000e+00
+0.00000000000000e+00
+0.00000000000000e+00
+0.00000000000000e+00
+0.00000000000000e+00
+0.00000000000000e+00
+0.00000000000000e+00
+0.00000000000000e+00
+0.00000000000000e+00
+0.00000000000000e+00
+0.00000000000000e+00
+0.00000000000000e+00
+0.00000000000000e+00
+0.00000000000000e+00
+0.00000000000000e+00
+0.00000000000000e+00
+0.00000000000000e+00
+0.00000000000000e+00
+0.00000000000000e+00
+0.00000000000000e+00
+0.00000000000000e+00
+0.00000000000000e+00
+0.00000000000000e+00
+0.00000000000000e+00
+0.00000000000000e+00
+0.00000000000000e+00
+0.00000000000000e+00
+0.00000000000000e+00
+0.00000000000000e+00
+0.00000000000000e+00
+0.00000000000000e+00
+0.00000000000000e+00
+0.00000000000000e+00
+0.00000000000000e+00
+0.00000000000000e+00
+0.00000000000000e+00
+0.00000000000000e+00
+0.00000000000000e+00
+0.00000000000000e+00
+0.00000000000000e+00
+0.00000000000000e+00
+0.00000000000000e+00
+0.00000000000000e+00
+0.00000000000000e+00
+0.00000000000000e+00
+0.00000000000000e+00
+0.00000000000000e+00
+0.00000000000000e+00
+0.00000000000000e+00
+0.00000000000000e+00
+0.00000000000000e+00
+0.00000000000000e+00
+0.00000000000000e+00
+0.00000000000000e+00
+0.00000000000000e+00
+0.00000000000000e+00
+0.00000000000000e+00
+0.00000000000000e+00
+0.00000000000000e+00
+0.00000000000000e+00
+0.00000000000000e+00
+0.00000000000000e+00
+0.00000000000000e+00
+0.00000000000000e+00
+0.00000000000000e+00
+0.00000000000000e+00
+0.00000000000000e+00
+0.00000000000000e+00
+0.00000000000000e+00
+0.00000000000000e+00
+0.00000000000000e+00
+0.00000000000000e+00
+0.00000000000000e+00
+0.00000000000000e+00
+0.00000000000000e+00
+0.00000000000000e+00
+0.00000000000000e+00
+0.00000000000000e+00
+0.00000000000000e+00
+0.00000000000000e+00
+0.00000000000000e+00
+0.00000000000000e+00
+0.00000000000000e+00
+0.00000000000000e+00
+0.00000000000000e+00
+0.00000000000000e+00
+0.00000000000000e+00
+0.00000000000000e+00
+0.00000000000000e+00
+0.00000000000000e+00
+0.00000000000000e+00
+0.00000000000000e+00
+0.00000000000000e+00
+0.00000000000000e+00
+0.00000000000000e+00
+0.00000000000000e+00
+0.00000000000000e+00
+0.00000000000000e+00
+0.00000000000000e+00
+0.00000000000000e+00
+0.00000000000000e+00
+0.00000000000000e+00
+0.00000000000000e+00
+0.00000000000000e+00
+0.00000000000000e+00
+0.00000000000000e+00
+0.00000000000000e+00
+0.00000000000000e+00
+0.00000000000000e+00
+0.00000000000000e+00
+0.00000000000000e+00
+0.00000000000000e+00
+0.00000000000000e+00
+0.00000000000000e+00
+0.00000000000000e+00
+0.00000000000000e+00
+0.00000000000000e+00
+0.00000000000000e+00
+0.00000000000000e+00
+0.00000000000000e+00
+0.00000000000000e+00
+0.00000000000000e+00
+0.00000000000000e+00
+0.00000000000000e+00
+0.00000000000000e+00
+0.00000000000000e+00
+0.00000000000000e+00
+0.00000000000000e+00
+0.00000000000000e+00
+0.00000000000000e+00
+0.00000000000000e+00
+0.00000000000000e+00
+0.00000000000000e+00
+0.00000000000000e+00
+0.00000000000000e+00
+0.00000000000000e+00
+0.00000000000000e+00
+0.00000000000000e+00
+0.00000000000000e+00
+0.00000000000000e+00
+0.00000000000000e+00
+0.00000000000000e+00
+0.00000000000000e+00
+0.00000000000000e+00
+0.00000000000000e+00
+0.00000000000000e+00
+0.00000000000000e+00
+0.00000000000000e+00
+0.00000000000000e+00
+0.00000000000000e+00
+0.00000000000000e+00
+0.00000000000000e+00
+0.00000000000000e+00
+0.00000000000000e+00
+0.00000000000000e+00
+0.00000000000000e+00
+0.00000000000000e+00
+0.00000000000000e+00
+0.00000000000000e+00
+0.00000000000000e+00
+0.00000000000000e+00
+0.00000000000000e+00
+0.00000000000000e+00
+0.00000000000000e+00
+0.00000000000000e+00
+0.00000000000000e+00
+0.00000000000000e+00
+0.00000000000000e+00
+0.00000000000000e+00
+0.00000000000000e+00
+0.00000000000000e+00
+0.00000000000000e+00
+0.00000000000000e+00
+0.00000000000000e+00
+0.00000000000000e+00
+0.00000000000000e+00
+0.00000000000000e+00
+0.00000000000000e+00
+0.00000000000000e+00
+0.00000000000000e+00
+0.00000000000000e+00
+0.00000000000000e+00
+0.00000000000000e+00
+0.00000000000000e+00
+0.00000000000000e+00
+0.00000000000000e+00
+0.00000000000000e+00
+0.00000000000000e+00
+0.00000000000000e+00
+0.00000000000000e+00
+0.00000000000000e+00
+0.00000000000000e+00
+0.00000000000000e+00
+0.00000000000000e+00
+0.00000000000000e+00
+0.00000000000000e+00
+0.00000000000000e+00
+0.00000000000000e+00
+0.00000000000000e+00
+0.00000000000000e+00
+0.00000000000000e+00
+0.00000000000000e+00
+0.00000000000000e+00
+2.93000000000000e+02
+2.93000000000000e+02
+2.93000000000000e+02
+2.93000000000000e+02
+2.93000000000000e+02
+2.93000000000000e+02
+2.93000000000000e+02
+2.93000000000000e+02
+2.93000000000000e+02
+2.93000000000000e+02
+2.93000000000000e+02
+2.93000000000000e+02
+2.93000000000000e+02
+2.93000000000000e+02
+2.93000000000000e+02
+2.93000000000000e+02
+2.93000000000000e+02
+2.93000000000000e+02
+2.93000000000000e+02
+2.93000000000000e+02
+2.93000000000000e+02
+2.93000000000000e+02
+2.93000000000000e+02
+2.93000000000000e+02
+2.93000000000000e+02
+2.93000000000000e+02
+2.93000000000000e+02
+2.93000000000000e+02
+2.93000000000000e+02
+2.93000000000000e+02
+2.93000000000000e+02
+2.93000000000000e+02
+2.93000000000000e+02
+2.93000000000000e+02
+2.93000000000000e+02
+2.93000000000000e+02
+2.93000000000000e+02
+2.93000000000000e+02
+2.93000000000000e+02
+2.93000000000000e+02
+2.93000000000000e+02
+2.93000000000000e+02
+2.93000000000000e+02
+2.93000000000000e+02
+2.93000000000000e+02
+2.93000000000000e+02
+2.93000000000000e+02
+2.93000000000000e+02
+2.93000000000000e+02
+2.93000000000000e+02
+2.93000000000000e+02
+2.93000000000000e+02
+2.93000000000000e+02
+2.93000000000000e+02
+2.93000000000000e+02
+2.93000000000000e+02
+2.93000000000000e+02
+2.93000000000000e+02
+2.93000000000000e+02
+2.93000000000000e+02
+2.93000000000000e+02
+2.93000000000000e+02
+2.93000000000000e+02
+2.93000000000000e+02
+2.93000000000000e+02
+2.93000000000000e+02
+2.93000000000000e+02
+2.93000000000000e+02
+2.93000000000000e+02
+2.93000000000000e+02
+2.93000000000000e+02
+2.93000000000000e+02
+2.93000000000000e+02
+2.93000000000000e+02
+2.93000000000000e+02
+2.93000000000000e+02
+2.93000000000000e+02
+2.93000000000000e+02
+2.93000000000000e+02
+2.93000000000000e+02
+2.93000000000000e+02
+2.93000000000000e+02
+2.93000000000000e+02
+2.93000000000000e+02
+2.93000000000000e+02
+2.93000000000000e+02
+2.93000000000000e+02
+2.93000000000000e+02
+2.93000000000000e+02
+2.93000000000000e+02
+2.93000000000000e+02
+2.93000000000000e+02
+2.93000000000000e+02
+2.93000000000000e+02
+2.93000000000000e+02
+2.93000000000000e+02
+2.93000000000000e+02
+2.93000000000000e+02
+2.93000000000000e+02
+2.93000000000000e+02
+2.93000000000000e+02
+2.93000000000000e+02
+2.93000000000000e+02
+2.93000000000000e+02
+2.93000000000000e+02
+2.93000000000000e+02
+2.93000000000000e+02
+2.93000000000000e+02
+2.93000000000000e+02
+2.93000000000000e+02
+2.93000000000000e+02
+2.93000000000000e+02
+2.93000000000000e+02
+2.93000000000000e+02
+2.93000000000000e+02
+2.93000000000000e+02
+2.93000000000000e+02
+2.93000000000000e+02
+2.93000000000000e+02
+2.93000000000000e+02
+2.93000000000000e+02
+2.93000000000000e+02
+2.93000000000000e+02
+2.93000000000000e+02
+2.93000000000000e+02
+2.93000000000000e+02
+2.93000000000000e+02
+2.93000000000000e+02
+2.93000000000000e+02
+2.93000000000000e+02
+2.93000000000000e+02
+2.93000000000000e+02
+2.93000000000000e+02
+2.93000000000000e+02
+2.93000000000000e+02
+2.93000000000000e+02
+2.93000000000000e+02
+2.93000000000000e+02
+2.93000000000000e+02
+1.75803864307653e-01
+4.48155199613943e+00
+1.75741020487886e-01
+1.75682097183946e-01
+1.75674795543786e-01
+1.75655235661059e-01
+1.75624848659706e-01
+1.75582199982975e-01
+1.75537286288833e-01
+1.75500781360638e-01
+1.75475578802593e-01
+1.75458911714339e-01
+1.75440833925514e-01
+1.75413114863842e-01
+1.75369722739862e-01
+1.75321381612281e-01
+1.75280779510021e-01
+1.75232215643566e-01
+1.75183815534877e-01
+1.75135214745503e-01
+1.75076837524299e-01
+1.75027762926453e-01
+1.74972391532683e-01
+1.74907485591470e-01
+1.74844942546994e-01
+1.74780289353611e-01
+1.74722015567661e-01
+1.74658647145424e-01
+1.74584097903930e-01
+1.74518402728129e-01
+1.74449716568932e-01
+1.74370924960406e-01
+1.74293105949152e-01
+1.74218455083657e-01
+1.74140799437921e-01
+1.74057398197969e-01
+1.73968921886511e-01
+1.73884189359921e-01
+1.73801622550327e-01
+1.73706409797739e-01
+1.73599907865681e-01
+1.73495471580057e-01
+1.73403816784910e-01
+1.73305488404698e-01
+1.73198032219758e-01
+1.73081963544384e-01
+1.72970306189944e-01
+1.72855354532694e-01
+1.72735378938910e-01
+1.72618472071592e-01
+1.72489240335826e-01
+1.72361697250348e-01
+1.72241824517746e-01
+1.72118257216993e-01
+1.71984822846801e-01
+1.71851684956442e-01
+1.71714205468006e-01
+1.71562220609505e-01
+1.71404730047415e-01
+1.71259637966697e-01
+1.71117818654812e-01
+1.70963533675212e-01
+1.70790317840343e-01
+1.70621292324511e-01
+1.70458246234333e-01
+1.70278543733928e-01
+1.70090719451332e-01
+1.69903585386697e-01
+1.69724642443251e-01
+1.69536765667993e-01
+1.69341043865073e-01
+1.69141383807777e-01
+1.68934893269998e-01
+1.68726890139243e-01
+1.68531417923950e-01
+1.68332876839018e-01
+1.68111982791539e-01
+1.67911204446249e-01
+1.67705635036189e-01
+1.67498902757638e-01
+1.67308442806828e-01
+1.67110615710642e-01
+1.66915067605239e-01
+1.66712309283639e-01
+1.66515207832562e-01
+1.66344270910585e-01
+1.66177764149670e-01
+1.66002763117544e-01
+1.65839090675049e-01
+1.65690473562332e-01
+1.65576496723122e-01
+1.65472737156768e-01
+1.65374186345649e-01
+1.65299031243352e-01
+1.65226126443950e-01
+1.65165558858308e-01
+1.65101594044750e-01
+1.65046565474703e-01
+1.65058652074416e-01
+1.65128490814495e-01
+1.65264643388921e-01
+1.65463316256769e-01
+1.65684033994142e-01
+1.65964404246491e-01
+1.66302602956414e-01
+1.66684602065851e-01
+1.67130870165895e-01
+1.67654404160742e-01
+1.68245044223308e-01
+1.68923360280542e-01
+1.69719742434783e-01
+1.70661838935837e-01
+1.71773420744515e-01
+1.73075951245516e-01
+1.74642632971912e-01
+1.76302471304916e-01
+1.78211809623729e-01
+1.80594860795915e-01
+1.83646605226875e-01
+1.87629828360618e-01
+1.92665480974309e-01
+1.98704014061483e-01
+2.05687683523772e-01
+2.13761989614181e-01
+2.23823395427781e-01
+2.37718647042786e-01
+2.59268950781936e-01
+3.18878084323989e-01
+4.80315180499538e-01
+7.48831438983568e-01
+1.10463442199642e+00
+1.53682297017458e+00
+2.01831838445202e+00
+2.51550155542281e+00
+3.01137639924003e+00
+3.49026912943031e+00
+3.92372126885096e+00
+4.26316471691439e+00
+4.44111317608735e+00
-5.20457057957596e+03
-5.20457057957596e+03
-5.20457057957596e+03
-5.20457057957596e+03
-5.20457057957596e+03
-5.20457057957596e+03
-5.20457057957596e+03
-5.20457057957596e+03
-5.20457057957596e+03
-5.20457057957596e+03
-5.20457057957596e+03
-5.20457057957596e+03
-5.20457057957596e+03
-5.20457057957596e+03
-5.20457057957596e+03
-5.20457057957596e+03
-5.20457057957596e+03
-5.20457057957596e+03
-5.20457057957596e+03
-5.20457057957596e+03
-5.20457057957596e+03
-5.20457057957596e+03
-5.20457057957596e+03
-5.20457057957596e+03
-5.20457057957596e+03
-5.20457057957596e+03
-5.20457057957596e+03
-5.20457057957596e+03
-5.20457057957596e+03
-5.20457057957596e+03
-5.20457057957596e+03
-5.20457057957596e+03
-5.20457057957596e+03
-5.20457057957596e+03
-5.20457057957596e+03
-5.20457057957596e+03
-5.20457057957596e+03
-5.20457057957596e+03
-5.20457057957596e+03
-5.20457057957596e+03
-5.20457057957596e+03
-5.20457057957596e+03
-5.20457057957596e+03
-5.20457057957596e+03
-5.20457057957596e+03
-5.20457057957596e+03
-5.20457057957596e+03
-5.20457057957596e+03
-5.20457057957596e+03
-5.20457057957596e+03
-5.20457057957596e+03
-5.20457057957596e+03
-5.20457057957596e+03
-5.20457057957596e+03
-5.20457057957596e+03
-5.20457057957596e+03
-5.20457057957596e+03
-5.20457057957596e+03
-5.20457057957596e+03
-5.20457057957596e+03
-5.20457057957596e+03
-5.20457057957596e+03
-5.20457057957596e+03
-5.20457057957596e+03
-5.20457057957596e+03
-5.20457057957596e+03
-5.20457057957596e+03
-5.20457057957596e+03
-5.20457057957596e+03
-5.20457057957596e+03
-5.20457057957596e+03
-5.20457057957596e+03
-5.20457057957596e+03
-5.20457057957596e+03
-5.20457057957596e+03
-5.20457057957596e+03
-5.20457057957596e+03
-5.20457057957596e+03
-5.20457057957596e+03
-5.20457057957596e+03
-5.20457057957596e+03
-5.20457057957596e+03
-5.20457057957596e+03
-5.20457057957596e+03
-5.20457057957596e+03
-5.20457057957596e+03
-5.20457057957596e+03
-5.20457057957596e+03
-5.20457057957596e+03
-5.20457057957596e+03
-5.20457057957596e+03
-5.20457057957596e+03
-5.20457057957596e+03
-5.20457057957596e+03
-5.20457057957596e+03
-5.20457057957596e+03
-5.20457057957596e+03
-5.20457057957596e+03
-5.20457057957596e+03
-5.20457057957596e+03
-5.20457057957596e+03
-5.20457057957596e+03
-5.20457057957596e+03
-5.20457057957596e+03
-5.20457057957596e+03
-5.20457057957596e+03
-5.20457057957596e+03
-5.20457057957596e+03
-5.20457057957596e+03
-5.20457057957596e+03
-5.20457057957596e+03
-5.20457057957596e+03
-5.20457057957596e+03
-5.20457057957596e+03
-5.20457057957596e+03
-5.20457057957596e+03
-5.20457057957596e+03
-5.20457057957596e+03
-5.20457057957596e+03
-5.20457057957596e+03
-5.20457057957596e+03
-5.20457057957596e+03
-5.20457057957596e+03
-5.20457057957596e+03
-5.20457057957596e+03
-5.20457057957596e+03
-5.20457057957596e+03
-5.20457057957596e+03
-5.20457057957596e+03
-5.20457057957596e+03
-5.20457057957596e+03
-5.20457057957596e+03
-5.20457057957596e+03
-5.20457057957596e+03
-5.20457057957596e+03
-5.20457057957596e+03
-5.20457057957596e+03
-5.20457057957596e+03
-5.20457057957596e+03
+0.00000000000000e+00
+0.00000000000000e+00
+0.00000000000000e+00
+0.00000000000000e+00
+0.00000000000000e+00
+0.00000000000000e+00
+0.00000000000000e+00
+0.00000000000000e+00
+0.00000000000000e+00
+0.00000000000000e+00
+0.00000000000000e+00
+0.00000000000000e+00
+0.00000000000000e+00
+0.00000000000000e+00
+0.00000000000000e+00
+0.00000000000000e+00
+0.00000000000000e+00
+0.00000000000000e+00
+0.00000000000000e+00
+0.00000000000000e+00
+0.00000000000000e+00
+0.00000000000000e+00
+0.00000000000000e+00
+0.00000000000000e+00
+0.00000000000000e+00
+0.00000000000000e+00
+0.00000000000000e+00
+0.00000000000000e+00
+0.00000000000000e+00
+0.00000000000000e+00
+0.00000000000000e+00
+0.00000000000000e+00
+0.00000000000000e+00
+0.00000000000000e+00
+0.00000000000000e+00
+0.00000000000000e+00
+0.00000000000000e+00
+0.00000000000000e+00
+0.00000000000000e+00
+0.00000000000000e+00
+0.00000000000000e+00
+0.00000000000000e+00
+0.00000000000000e+00
+0.00000000000000e+00
+0.00000000000000e+00
+0.00000000000000e+00
+0.00000000000000e+00
+0.00000000000000e+00
+0.00000000000000e+00
+0.00000000000000e+00
+0.00000000000000e+00
+0.00000000000000e+00
+0.00000000000000e+00
+0.00000000000000e+00
+0.00000000000000e+00
+0.00000000000000e+00
+0.00000000000000e+00
+0.00000000000000e+00
+0.00000000000000e+00
+0.00000000000000e+00
+0.00000000000000e+00
+0.00000000000000e+00
+0.00000000000000e+00
+0.00000000000000e+00
+0.00000000000000e+00
+0.00000000000000e+00
+0.00000000000000e+00
+0.00000000000000e+00
+0.00000000000000e+00
+0.00000000000000e+00
+0.00000000000000e+00
+0.00000000000000e+00
+0.00000000000000e+00
+0.00000000000000e+00
+0.00000000000000e+00
+0.00000000000000e+00
+0.00000000000000e+00
+0.00000000000000e+00
+0.00000000000000e+00
+0.00000000000000e+00
+0.00000000000000e+00
+0.00000000000000e+00
+0.00000000000000e+00
+0.00000000000000e+00
+0.00000000000000e+00
+0.00000000000000e+00
+0.00000000000000e+00
+0.00000000000000e+00
+0.00000000000000e+00
+0.00000000000000e+00
+0.00000000000000e+00
+0.00000000000000e+00
+0.00000000000000e+00
+0.00000000000000e+00
+0.00000000000000e+00
+0.00000000000000e+00
+0.00000000000000e+00
+0.00000000000000e+00
+0.00000000000000e+00
+0.00000000000000e+00
+0.00000000000000e+00
+0.00000000000000e+00
+0.00000000000000e+00
+0.00000000000000e+00
+0.00000000000000e+00
+0.00000000000000e+00
+0.00000000000000e+00
+0.00000000000000e+00
+0.00000000000000e+00
+0.00000000000000e+00
+0.00000000000000e+00
+0.00000000000000e+00
+0.00000000000000e+00
+0.00000000000000e+00
+0.00000000000000e+00
+0.00000000000000e+00
+0.00000000000000e+00
+0.00000000000000e+00
+0.00000000000000e+00
+0.00000000000000e+00
+0.00000000000000e+00
+0.00000000000000e+00
+0.00000000000000e+00
+0.00000000000000e+00
+0.00000000000000e+00
+0.00000000000000e+00
+0.00000000000000e+00
+0.00000000000000e+00
+0.00000000000000e+00
+0.00000000000000e+00
+0.00000000000000e+00
+0.00000000000000e+00
+0.00000000000000e+00
+0.00000000000000e+00
+0.00000000000000e+00
+0.00000000000000e+00
+0.00000000000000e+00
+0.00000000000000e+00
+0.00000000000000e+00
+0.00000000000000e+00
+0.00000000000000e+00
+0.00000000000000e+00
+0.00000000000000e+00
+0.00000000000000e+00
+0.00000000000000e+00
+0.00000000000000e+00
+0.00000000000000e+00
+0.00000000000000e+00
+0.00000000000000e+00
+0.00000000000000e+00
+0.00000000000000e+00
+0.00000000000000e+00
+0.00000000000000e+00
+0.00000000000000e+00
+0.00000000000000e+00
+0.00000000000000e+00
+0.00000000000000e+00
+0.00000000000000e+00
+0.00000000000000e+00
+0.00000000000000e+00
+0.00000000000000e+00
+0.00000000000000e+00
+0.00000000000000e+00
+0.00000000000000e+00
+0.00000000000000e+00
+0.00000000000000e+00
+0.00000000000000e+00
+0.00000000000000e+00
+0.00000000000000e+00
+0.00000000000000e+00
+0.00000000000000e+00
+0.00000000000000e+00
+0.00000000000000e+00
+0.00000000000000e+00
+0.00000000000000e+00
+0.00000000000000e+00
+0.00000000000000e+00
+0.00000000000000e+00
+0.00000000000000e+00
+0.00000000000000e+00
+0.00000000000000e+00
+0.00000000000000e+00
+0.00000000000000e+00
+0.00000000000000e+00
+0.00000000000000e+00
+0.00000000000000e+00
+0.00000000000000e+00
+0.00000000000000e+00
+0.00000000000000e+00
+0.00000000000000e+00
+0.00000000000000e+00
+0.00000000000000e+00
+0.00000000000000e+00
+0.00000000000000e+00
+0.00000000000000e+00
+0.00000000000000e+00
+0.00000000000000e+00
+0.00000000000000e+00
+0.00000000000000e+00
+0.00000000000000e+00
+0.00000000000000e+00
+0.00000000000000e+00
+0.00000000000000e+00
+0.00000000000000e+00
+0.00000000000000e+00
+0.00000000000000e+00
+0.00000000000000e+00
+0.00000000000000e+00
+0.00000000000000e+00
+0.00000000000000e+00
+0.00000000000000e+00
+0.00000000000000e+00
+0.00000000000000e+00
+0.00000000000000e+00
+0.00000000000000e+00
+0.00000000000000e+00
+0.00000000000000e+00
+0.00000000000000e+00
+0.00000000000000e+00
+0.00000000000000e+00
+0.00000000000000e+00
+0.00000000000000e+00
+0.00000000000000e+00
+0.00000000000000e+00
+0.00000000000000e+00
+0.00000000000000e+00
+0.00000000000000e+00
+0.00000000000000e+00
+0.00000000000000e+00
+0.00000000000000e+00
+0.00000000000000e+00
+0.00000000000000e+00
+0.00000000000000e+00
+0.00000000000000e+00
+0.00000000000000e+00
+0.00000000000000e+00
+0.00000000000000e+00
+0.00000000000000e+00