TITLE = Boundary data
VARIABLES =  "x0" "x1" "p" "u" "v" "T" "rho" "H" "M" "xc0" "xc1" "xc2" "xc3" "xc4"
ZONE   T= "ZONE0 Wall", N=139, E=138, ZONETYPE=FELINESEG, DATAPACKING=BLOCK, STRANDID=1, SOLUTIONTIME=6.13000000000000e+03, VARLOCATION=( [1-2]=NODAL,[3-6]=NODAL,[7-14]=NODAL)
+1.10000000000000e+00
+1.80137700000000e-02
+1.07163162050000e+00
+1.04521824960000e+00
+1.02062515790000e+00
+9.97726900530000e-01
+9.76406678040000e-01
+9.56555740000000e-01
+9.36704819320000e-01
+9.16323082120000e-01
+8.95396334290000e-01
+8.73910002150000e-01
+8.51849122350000e-01
+8.31320160150000e-01
+8.12216738500000e-01
+7.94439867200000e-01
+7.77897430000000e-01
+7.61354995270000e-01
+7.45234795260000e-01
+7.29526052700000e-01
+7.14218265420000e-01
+6.99301199290000e-01
+6.84823989550000e-01
+6.70773666230000e-01
+6.57137641830000e-01
+6.43903700000000e-01
+6.30669783380000e-01
+6.17647687050000e-01
+6.04834020630000e-01
+5.92225448030000e-01
+5.79818686550000e-01
+5.67610506010000e-01
+5.55597727970000e-01
+5.43777224830000e-01
+5.32145919060000e-01
+5.20700782410000e-01
+5.09438835080000e-01
+4.98357144950000e-01
+4.87452826860000e-01
+4.76723041810000e-01
+4.66164996260000e-01
+4.55775941360000e-01
+4.45553172270000e-01
+4.35494027450000e-01
+4.25595887940000e-01
+4.15856176710000e-01
+4.06272357990000e-01
+3.96841936580000e-01
+3.87562457220000e-01
+3.78431503960000e-01
+3.69446699500000e-01
+3.60605704610000e-01
+3.51906217500000e-01
+3.43345973200000e-01
+3.34922743020000e-01
+3.26634333920000e-01
+3.18478587980000e-01
+3.10453381810000e-01
+3.02556626000000e-01
+2.94786264610000e-01
+2.87140274570000e-01
+2.79616665220000e-01
+2.72213477740000e-01
+2.64928784690000e-01
+2.57797843450000e-01
+2.50817408920000e-01
+2.43984304490000e-01
+2.37295420580000e-01
+2.30747713260000e-01
+2.24338202820000e-01
+2.18063972470000e-01
+2.11922166960000e-01
+2.05909991320000e-01
+2.00024709550000e-01
+1.94263643420000e-01
+1.88624171220000e-01
+1.83103726550000e-01
+1.77699797220000e-01
+1.72409924020000e-01
+1.67231699680000e-01
+1.62162767720000e-01
+1.57200821390000e-01
+1.52343602640000e-01
+1.47588901070000e-01
+1.42934552950000e-01
+1.38378440200000e-01
+1.33918489440000e-01
+1.29552671070000e-01
+1.25278998310000e-01
+1.21095526330000e-01
+1.17000351330000e-01
+1.12991609710000e-01
+1.09067477190000e-01
+1.05226167990000e-01
+1.01465934040000e-01
+9.77850641540000e-02
+9.41818832550000e-02
+9.06547516300000e-02
+8.72020641710000e-02
+8.38222496510000e-02
+8.05137700000000e-02
+7.72052851670000e-02
+7.39068100290000e-02
+7.06183143040000e-02
+6.73397677990000e-02
+6.40711404120000e-02
+6.08124021340000e-02
+5.75635230450000e-02
+5.43244733180000e-02
+5.10952232130000e-02
+4.78757430830000e-02
+4.46660033680000e-02
+4.14659746000000e-02
+3.82756273980000e-02
+3.50949324710000e-02
+3.24262341680000e-02
+3.01871163650000e-02
+2.83084294680000e-02
+2.67321548970000e-02
+2.54096133230000e-02
+2.42999613330000e-02
+2.33689300800000e-02
+2.25877669750000e-02
+2.19323477340000e-02
+2.13824313620000e-02
+2.09210350560000e-02
+2.05339097370000e-02
+2.02091000000000e-02
+1.98878224150000e-02
+1.95871238660000e-02
+1.93102464880000e-02
+1.90595167480000e-02
+1.88363491970000e-02
+1.86413709150000e-02
+1.84694302330000e-02
+1.83181816420000e-02
+1.81921852220000e-02
+1.80962223910000e-02
+1.80351572710000e-02
+1.35063020000000e-01
+0.00000000000000e+00
+1.31579821070000e-01
+1.28336667020000e-01
+1.25317015130000e-01
+1.22505462730000e-01
+1.19887668640000e-01
+1.17450280000000e-01
+1.15012892550000e-01
+1.12510329000000e-01
+1.09940846540000e-01
+1.07302655730000e-01
+1.04593919320000e-01
+1.02073278810000e-01
+9.97276727340000e-02
+9.75449466160000e-02
+9.55137900000000e-02
+9.34826345760000e-02
+9.15033230530000e-02
+8.95745321480000e-02
+8.76949723570000e-02
+8.58633870880000e-02
+8.40858093860000e-02
+8.23606467440000e-02
+8.06863536080000e-02
+7.90614300000000e-02
+7.74365094810000e-02
+7.58375972200000e-02
+7.42642769330000e-02
+7.27161389990000e-02
+7.11927803510000e-02
+6.96938043770000e-02
+6.82188208090000e-02
+6.67674456300000e-02
+6.53393009660000e-02
+6.39340149930000e-02
+6.25512218380000e-02
+6.11905614830000e-02
+5.98516796750000e-02
+5.85342278280000e-02
+5.72378629380000e-02
+5.59622474890000e-02
+5.47070493690000e-02
+5.34719417810000e-02
+5.22566031580000e-02
+5.10607170820000e-02
+4.98839721960000e-02
+4.87260621310000e-02
+4.75866854180000e-02
+4.64655454140000e-02
+4.53623502270000e-02
+4.42768126330000e-02
+4.32086500070000e-02
+4.21575842480000e-02
+4.11233417060000e-02
+4.01056531100000e-02
+3.91042535010000e-02
+3.81188821590000e-02
+3.71492825380000e-02
+3.61952021970000e-02
+3.52563927380000e-02
+3.43326097360000e-02
+3.34236126800000e-02
+3.25291649090000e-02
+3.16535954860000e-02
+3.07965059620000e-02
+2.99575062980000e-02
+2.91362146850000e-02
+2.83322573770000e-02
+2.75452685110000e-02
+2.67748899500000e-02
+2.60207711140000e-02
+2.52825688220000e-02
+2.45599471390000e-02
+2.38525772170000e-02
+2.31601371500000e-02
+2.24823118260000e-02
+2.18187927850000e-02
+2.11692780770000e-02
+2.05334721220000e-02
+1.99110855830000e-02
+1.93018352270000e-02
+1.87054438010000e-02
+1.81216399010000e-02
+1.75501578530000e-02
+1.69907375910000e-02
+1.64431245360000e-02
+1.59070694840000e-02
+1.53823284910000e-02
+1.48686627590000e-02
+1.43658385330000e-02
+1.38736269900000e-02
+1.33918041370000e-02
+1.29201507100000e-02
+1.24584520700000e-02
+1.20064981100000e-02
+1.15640831590000e-02
+1.11310058830000e-02
+1.07070692020000e-02
+1.02920801910000e-02
+9.88585000000000e-03
+9.47961927560000e-03
+9.07461758690000e-03
+8.67084121560000e-03
+8.26828645440000e-03
+7.86694960750000e-03
+7.46682699000000e-03
+7.06791492850000e-03
+6.67020976030000e-03
+6.27370783410000e-03
+5.87840550950000e-03
+5.48429915710000e-03
+5.09138515870000e-03
+4.69965990670000e-03
+4.30911980470000e-03
+3.98144496270000e-03
+3.70651595660000e-03
+3.47584228650000e-03
+3.28230016880000e-03
+3.11991253550000e-03
+2.98366444790000e-03
+2.86934822170000e-03
+2.77343348430000e-03
+2.69295814700000e-03
+2.62543692890000e-03
+2.56878460460000e-03
+2.52125160790000e-03
+2.48137000000000e-03
+2.42037365300000e-03
+2.32192681100000e-03
+2.19124315440000e-03
+2.03350957080000e-03
+1.85371828800000e-03
+1.65654221500000e-03
+1.43898706010000e-03
+1.19557473600000e-03
+9.27496414520000e-04
+6.36763119340000e-04
+3.26314002040000e-04
+1.37493452439332e+04
+3.47422771702686e+05
+1.37418458539949e+04
+1.37355617302031e+04
+1.37369365424925e+04
+1.37381843094956e+04
+1.37392349209206e+04
+1.37401225437866e+04
+1.37408754372845e+04
+1.37414322708207e+04
+1.37417019703307e+04
+1.37417554668418e+04
+1.37416459858397e+04
+1.37414629086283e+04
+1.37413248144164e+04
+1.37414351595721e+04
+1.37418670494930e+04
+1.37424898245779e+04
+1.37433031713299e+04
+1.37442215849680e+04
+1.37450624715768e+04
+1.37457711363053e+04
+1.37462236747773e+04
+1.37464229673130e+04
+1.37477826377076e+04
+1.37489889961213e+04
+1.37490012122696e+04
+1.37490585436761e+04
+1.37490383867582e+04
+1.37492194537292e+04
+1.37494750829429e+04
+1.37498187960155e+04
+1.37503468619108e+04
+1.37508374743866e+04
+1.37512246547447e+04
+1.37515006129904e+04
+1.37516995103391e+04
+1.37516733492092e+04
+1.37512902316158e+04
+1.37508885555890e+04
+1.37504349138077e+04
+1.37499633698704e+04
+1.37497695862907e+04
+1.37497023419113e+04
+1.37496561397165e+04
+1.37495047245101e+04
+1.37491418748137e+04
+1.37485629719621e+04
+1.37478070369097e+04
+1.37468482101798e+04
+1.37456733506380e+04
+1.37442122977891e+04
+1.37426280011320e+04
+1.37411125822578e+04
+1.37394994880415e+04
+1.37378519986427e+04
+1.37360643258493e+04
+1.37339395275538e+04
+1.37313572940275e+04
+1.37283425294131e+04
+1.37249705898206e+04
+1.37210938924485e+04
+1.37168173244458e+04
+1.37122761003106e+04
+1.37073172762814e+04
+1.37018692551057e+04
+1.36960139917126e+04
+1.36896660511840e+04
+1.36828673046809e+04
+1.36753141266805e+04
+1.36669133698030e+04
+1.36579939965247e+04
+1.36481157142697e+04
+1.36370589115615e+04
+1.36252674187714e+04
+1.36124709995292e+04
+1.35985898595727e+04
+1.35834786040575e+04
+1.35667690922929e+04
+1.35485550200967e+04
+1.35286610656765e+04
+1.35067308635105e+04
+1.34825343969293e+04
+1.34562057888715e+04
+1.34276759351685e+04
+1.33968527733155e+04
+1.33641610307874e+04
+1.33296283362359e+04
+1.32934632410047e+04
+1.32557245102156e+04
+1.32164802746645e+04
+1.31754445877097e+04
+1.31318874894673e+04
+1.30851117211364e+04
+1.30344033412098e+04
+1.29793629392984e+04
+1.29200208649045e+04
+1.28567000225650e+04
+1.27898810355651e+04
+1.27210663811607e+04
+1.26504602026772e+04
+1.25760470673762e+04
+1.24992892367030e+04
+1.24224872424709e+04
+1.23478334172003e+04
+1.22778399117522e+04
+1.22161697690368e+04
+1.21668920926439e+04
+1.21352589203294e+04
+1.21290020829888e+04
+1.21587824851635e+04
+1.22382746003762e+04
+1.23865995049731e+04
+1.26314521770306e+04
+1.30373919828441e+04
+1.35814650372758e+04
+1.42567169147745e+04
+1.50507549023758e+04
+1.59495681795739e+04
+1.69355799338557e+04
+1.79890962809248e+04
+1.90998777986241e+04
+2.02896444362056e+04
+2.20839190713453e+04
+2.39069805876038e+04
+2.54542672443153e+04
+2.73425106711441e+04
+3.21018087786429e+04
+4.43806092808028e+04
+6.37137244385022e+04
+8.82442772731250e+04
+1.18042113420411e+05
+1.50037884747703e+05
+1.84047849502305e+05
+2.26047203697535e+05
+2.66885400640680e+05
+3.02209751435940e+05
+3.34478322602644e+05
+3.47898708886650e+05
+0.00000000000000e+00
+0.00000000000000e+00
+0.00000000000000e+00
+0.00000000000000e+00
+0.00000000000000e+00
+0.00000000000000e+00
+0.00000000000000e+00
+0.00000000000000e+00
+0.00000000000000e+00
+0.00000000000000e+00
+0.00000000000000e+00
+0.00000000000000e+00
+0.00000000000000e+00
+0.00000000000000e+00
+0.00000000000000e+00
+0.00000000000000e+00
+0.00000000000000e+00
+0.00000000000000e+00
+0.00000000000000e+00
+0.00000000000000e+00
+0.00000000000000e+00
+0.00000000000000e+00
+0.00000000000000e+00
+0.00000000000000e+00
+0.00000000000000e+00
+0.00000000000000e+00
+0.00000000000000e+00
+0.00000000000000e+00
+0.00000000000000e+00
+0.00000000000000e+00
+0.00000000000000e+00
+0.00000000000000e+00
+0.00000000000000e+00
+0.00000000000000e+00
+0.00000000000000e+00
+0.00000000000000e+00
+0.00000000000000e+00
+0.00000000000000e+00
+0.00000000000000e+00
+0.00000000000000e+00
+0.00000000000000e+00
+0.00000000000000e+00
+0.00000000000000e+00
+0.00000000000000e+00
+0.00000000000000e+00
+0.00000000000000e+00
+0.00000000000000e+00
+0.00000000000000e+00
+0.00000000000000e+00
+0.00000000000000e+00
+0.00000000000000e+00
+0.00000000000000e+00
+0.00000000000000e+00
+0.00000000000000e+00
+0.00000000000000e+00
+0.00000000000000e+00
+0.00000000000000e+00
+0.00000000000000e+00
+0.00000000000000e+00
+0.00000000000000e+00
+0.00000000000000e+00
+0.00000000000000e+00
+0.00000000000000e+00
+0.00000000000000e+00
+0.00000000000000e+00
+0.00000000000000e+00
+0.00000000000000e+00
+0.00000000000000e+00
+0.00000000000000e+00
+0.00000000000000e+00
+0.00000000000000e+00
+0.00000000000000e+00
+0.00000000000000e+00
+0.00000000000000e+00
+0.00000000000000e+00
+0.00000000000000e+00
+0.00000000000000e+00
+0.00000000000000e+00
+0.00000000000000e+00
+0.00000000000000e+00
+0.00000000000000e+00
+0.00000000000000e+00
+0.00000000000000e+00
+0.00000000000000e+00
+0.00000000000000e+00
+0.00000000000000e+00
+0.00000000000000e+00
+0.00000000000000e+00
+0.00000000000000e+00
+0.00000000000000e+00
+0.00000000000000e+00
+0.00000000000000e+00
+0.00000000000000e+00
+0.00000000000000e+00
+0.00000000000000e+00
+0.00000000000000e+00
+0.00000000000000e+00
+0.00000000000000e+00
+0.00000000000000e+00
+0.00000000000000e+00
+0.00000000000000e+00
+0.00000000000000e+00
+0.00000000000000e+00
+0.00000000000000e+00
+0.00000000000000e+00
+0.00000000000000e+00
+0.00000000000000e+00
+0.00000000000000e+00
+0.00000000000000e+00
+0.00000000000000e+00
+0.00000000000000e+00
+0.00000000000000e+00
+0.00000000000000e+00
+0.00000000000000e+00
+0.00000000000000e+00
+0.00000000000000e+00
+0.00000000000000e+00
+0.00000000000000e+00
+0.00000000000000e+00
+0.00000000000000e+00
+0.00000000000000e+00
+0.00000000000000e+00
+0.00000000000000e+00
+0.00000000000000e+00
+0.00000000000000e+00
+0.00000000000000e+00
+0.00000000000000e+00
+0.00000000000000e+00
+0.00000000000000e+00
+0.00000000000000e+00
+0.00000000000000e+00
+0.00000000000000e+00
+0.00000000000000e+00
+0.00000000000000e+00
+0.00000000000000e+00
+0.00000000000000e+00
+0.00000000000000e+00
+0.00000000000000e+00
+0.00000000000000e+00
+0.00000000000000e+00
+0.00000000000000e+00
+0.00000000000000e+00
+0.00000000000000e+00
+0.00000000000000e+00
+0.00000000000000e+00
+0.00000000000000e+00
+0.00000000000000e+00
+0.00000000000000e+00
+0.00000000000000e+00
+0.00000000000000e+00
+0.00000000000000e+00
+0.00000000000000e+00
+0.00000000000000e+00
+0.00000000000000e+00
+0.00000000000000e+00
+0.00000000000000e+00
+0.00000000000000e+00
+0.00000000000000e+00
+0.00000000000000e+00
+0.00000000000000e+00
+0.00000000000000e+00
+0.00000000000000e+00
+0.00000000000000e+00
+0.00000000000000e+00
+0.00000000000000e+00
+0.00000000000000e+00
+0.00000000000000e+00
+0.00000000000000e+00
+0.00000000000000e+00
+0.00000000000000e+00
+0.00000000000000e+00
+0.00000000000000e+00
+0.00000000000000e+00
+0.00000000000000e+00
+0.00000000000000e+00
+0.00000000000000e+00
+0.00000000000000e+00
+0.00000000000000e+00
+0.00000000000000e+00
+0.00000000000000e+00
+0.00000000000000e+00
+0.00000000000000e+00
+0.00000000000000e+00
+0.00000000000000e+00
+0.00000000000000e+00
+0.00000000000000e+00
+0.00000000000000e+00
+0.00000000000000e+00
+0.00000000000000e+00
+0.00000000000000e+00
+0.00000000000000e+00
+0.00000000000000e+00
+0.00000000000000e+00
+0.00000000000000e+00
+0.00000000000000e+00
+0.00000000000000e+00
+0.00000000000000e+00
+0.00000000000000e+00
+0.00000000000000e+00
+0.00000000000000e+00
+0.00000000000000e+00
+0.00000000000000e+00
+0.00000000000000e+00
+0.00000000000000e+00
+0.00000000000000e+00
+0.00000000000000e+00
+0.00000000000000e+00
+0.00000000000000e+00
+0.00000000000000e+00
+0.00000000000000e+00
+0.00000000000000e+00
+0.00000000000000e+00
+0.00000000000000e+00
+0.00000000000000e+00
+0.00000000000000e+00
+0.00000000000000e+00
+0.00000000000000e+00
+0.00000000000000e+00
+0.00000000000000e+00
+0.00000000000000e+00
+0.00000000000000e+00
+0.00000000000000e+00
+0.00000000000000e+00
+0.00000000000000e+00
+0.00000000000000e+00
+0.00000000000000e+00
+0.00000000000000e+00
+0.00000000000000e+00
+0.00000000000000e+00
+0.00000000000000e+00
+0.00000000000000e+00
+0.00000000000000e+00
+0.00000000000000e+00
+0.00000000000000e+00
+0.00000000000000e+00
+0.00000000000000e+00
+0.00000000000000e+00
+0.00000000000000e+00
+0.00000000000000e+00
+0.00000000000000e+00
+0.00000000000000e+00
+0.00000000000000e+00
+0.00000000000000e+00
+0.00000000000000e+00
+0.00000000000000e+00
+0.00000000000000e+00
+0.00000000000000e+00
+0.00000000000000e+00
+0.00000000000000e+00
+0.00000000000000e+00
+0.00000000000000e+00
+0.00000000000000e+00
+0.00000000000000e+00
+0.00000000000000e+00
+0.00000000000000e+00
+0.00000000000000e+00
+0.00000000000000e+00
+0.00000000000000e+00
+0.00000000000000e+00
+0.00000000000000e+00
+0.00000000000000e+00
+0.00000000000000e+00
+0.00000000000000e+00
+0.00000000000000e+00
+0.00000000000000e+00
+0.00000000000000e+00
+0.00000000000000e+00
+0.00000000000000e+00
+0.00000000000000e+00
+0.00000000000000e+00
+0.00000000000000e+00
+0.00000000000000e+00
+0.00000000000000e+00
+0.00000000000000e+00
+0.00000000000000e+00
+0.00000000000000e+00
+0.00000000000000e+00
+0.00000000000000e+00
+2.93000000000000e+02
+2.93000000000000e+02
+2.93000000000000e+02
+2.93000000000000e+02
+2.93000000000000e+02
+2.93000000000000e+02
+2.93000000000000e+02
+2.93000000000000e+02
+2.93000000000000e+02
+2.93000000000000e+02
+2.93000000000000e+02
+2.93000000000000e+02
+2.93000000000000e+02
+2.93000000000000e+02
+2.93000000000000e+02
+2.93000000000000e+02
+2.93000000000000e+02
+2.93000000000000e+02
+2.93000000000000e+02
+2.93000000000000e+02
+2.93000000000000e+02
+2.93000000000000e+02
+2.93000000000000e+02
+2.93000000000000e+02
+2.93000000000000e+02
+2.93000000000000e+02
+2.93000000000000e+02
+2.93000000000000e+02
+2.93000000000000e+02
+2.93000000000000e+02
+2.93000000000000e+02
+2.93000000000000e+02
+2.93000000000000e+02
+2.93000000000000e+02
+2.93000000000000e+02
+2.93000000000000e+02
+2.93000000000000e+02
+2.93000000000000e+02
+2.93000000000000e+02
+2.93000000000000e+02
+2.93000000000000e+02
+2.93000000000000e+02
+2.93000000000000e+02
+2.93000000000000e+02
+2.93000000000000e+02
+2.93000000000000e+02
+2.93000000000000e+02
+2.93000000000000e+02
+2.93000000000000e+02
+2.93000000000000e+02
+2.93000000000000e+02
+2.93000000000000e+02
+2.93000000000000e+02
+2.93000000000000e+02
+2.93000000000000e+02
+2.93000000000000e+02
+2.93000000000000e+02
+2.93000000000000e+02
+2.93000000000000e+02
+2.93000000000000e+02
+2.93000000000000e+02
+2.93000000000000e+02
+2.93000000000000e+02
+2.93000000000000e+02
+2.93000000000000e+02
+2.93000000000000e+02
+2.93000000000000e+02
+2.93000000000000e+02
+2.93000000000000e+02
+2.93000000000000e+02
+2.93000000000000e+02
+2.93000000000000e+02
+2.93000000000000e+02
+2.93000000000000e+02
+2.93000000000000e+02
+2.93000000000000e+02
+2.93000000000000e+02
+2.93000000000000e+02
+2.93000000000000e+02
+2.93000000000000e+02
+2.93000000000000e+02
+2.93000000000000e+02
+2.93000000000000e+02
+2.93000000000000e+02
+2.93000000000000e+02
+2.93000000000000e+02
+2.93000000000000e+02
+2.93000000000000e+02
+2.93000000000000e+02
+2.93000000000000e+02
+2.93000000000000e+02
+2.93000000000000e+02
+2.93000000000000e+02
+2.93000000000000e+02
+2.93000000000000e+02
+2.93000000000000e+02
+2.93000000000000e+02
+2.93000000000000e+02
+2.93000000000000e+02
+2.93000000000000e+02
+2.93000000000000e+02
+2.93000000000000e+02
+2.93000000000000e+02
+2.93000000000000e+02
+2.93000000000000e+02
+2.93000000000000e+02
+2.93000000000000e+02
+2.93000000000000e+02
+2.93000000000000e+02
+2.93000000000000e+02
+2.93000000000000e+02
+2.93000000000000e+02
+2.93000000000000e+02
+2.93000000000000e+02
+2.93000000000000e+02
+2.93000000000000e+02
+2.93000000000000e+02
+2.93000000000000e+02
+2.93000000000000e+02
+2.93000000000000e+02
+2.93000000000000e+02
+2.93000000000000e+02
+2.93000000000000e+02
+2.93000000000000e+02
+2.93000000000000e+02
+2.93000000000000e+02
+2.93000000000000e+02
+2.93000000000000e+02
+2.93000000000000e+02
+2.93000000000000e+02
+2.93000000000000e+02
+2.93000000000000e+02
+2.93000000000000e+02
+2.93000000000000e+02
+2.93000000000000e+02
+2.93000000000000e+02
+2.93000000000000e+02
+2.93000000000000e+02
+2.93000000000000e+02
+1.62828564747156e-01
+4.11440328780664e+00
+1.62739752161649e-01
+1.62665331537281e-01
+1.62681612946170e-01
+1.62696389803297e-01
+1.62708831817619e-01
+1.62719343616890e-01
+1.62728259864572e-01
+1.62734854244442e-01
+1.62738048199016e-01
+1.62738681739012e-01
+1.62737385194767e-01
+1.62735217077010e-01
+1.62733581676784e-01
+1.62734888454889e-01
+1.62740003172332e-01
+1.62747378474314e-01
+1.62757010648205e-01
+1.62767887091547e-01
+1.62777845410086e-01
+1.62786237872313e-01
+1.62791597123142e-01
+1.62793957273169e-01
+1.62810059362029e-01
+1.62824345832082e-01
+1.62824490503545e-01
+1.62825169458832e-01
+1.62824930747681e-01
+1.62827075058883e-01
+1.62830102383984e-01
+1.62834172854635e-01
+1.62840426549651e-01
+1.62846236697252e-01
+1.62850821935377e-01
+1.62854090009912e-01
+1.62856445479882e-01
+1.62856135663003e-01
+1.62851598538743e-01
+1.62846841633612e-01
+1.62841469316687e-01
+1.62835884990949e-01
+1.62833590081513e-01
+1.62832793730444e-01
+1.62832246574420e-01
+1.62830453418434e-01
+1.62826156319609e-01
+1.62819300580751e-01
+1.62810348313030e-01
+1.62798993271935e-01
+1.62785079831726e-01
+1.62767777106819e-01
+1.62749014849690e-01
+1.62731068287444e-01
+1.62711964991150e-01
+1.62692454365044e-01
+1.62671283597271e-01
+1.62646120373082e-01
+1.62615539907506e-01
+1.62579837131372e-01
+1.62539904460069e-01
+1.62493994123406e-01
+1.62443348262270e-01
+1.62389568173473e-01
+1.62330842598896e-01
+1.62266323637955e-01
+1.62196981853484e-01
+1.62121805470389e-01
+1.62041290353812e-01
+1.61951840775576e-01
+1.61852353624670e-01
+1.61746724685721e-01
+1.61629739731659e-01
+1.61498797982526e-01
+1.61359155562238e-01
+1.61207612158378e-01
+1.61043222796117e-01
+1.60864265616453e-01
+1.60666380861216e-01
+1.60450678136375e-01
+1.60215081168817e-01
+1.59955369649471e-01
+1.59668819573415e-01
+1.59357019310510e-01
+1.59019150484868e-01
+1.58654122833263e-01
+1.58266966250859e-01
+1.57858007933870e-01
+1.57429717681063e-01
+1.56982791426704e-01
+1.56518036019372e-01
+1.56032065095541e-01
+1.55516234002095e-01
+1.54962285353112e-01
+1.54361764195368e-01
+1.53709940454868e-01
+1.53007173549880e-01
+1.52257287523033e-01
+1.51465974223526e-01
+1.50651026950659e-01
+1.49814863300624e-01
+1.48933615226303e-01
+1.48024599765575e-01
+1.47115061291657e-01
+1.46230962812346e-01
+1.45402054829344e-01
+1.44671717446149e-01
+1.44088139597257e-01
+1.43713519282254e-01
+1.43639421801541e-01
+1.43992100424244e-01
+1.44933497036168e-01
+1.46690055687019e-01
+1.49589758069807e-01
+1.54397157606417e-01
+1.60840419667190e-01
+1.68837185484417e-01
+1.78240692602902e-01
+1.88885015900147e-01
+2.00561999489193e-01
+2.13038415761204e-01
+2.26193002911778e-01
+2.40282982510402e-01
+2.61531933527246e-01
+2.83121797253240e-01
+3.01445758219739e-01
+3.23807547936194e-01
+3.80170208579240e-01
+5.25583639336284e-01
+7.54538788644844e-01
+1.04504532838559e+00
+1.39793041537359e+00
+1.77684486044508e+00
+2.17961267591882e+00
+2.67699596527467e+00
+3.16062808572405e+00
+3.57896170369435e+00
+3.96110681942880e+00
+4.12003964118926e+00
-5.20457057957596e+03
-5.20457057957596e+03
-5.20457057957596e+03
-5.20457057957596e+03
-5.20457057957596e+03
-5.20457057957596e+03
-5.20457057957596e+03
-5.20457057957596e+03
-5.20457057957596e+03
-5.20457057957596e+03
-5.20457057957596e+03
-5.20457057957596e+03
-5.20457057957596e+03
-5.20457057957596e+03
-5.20457057957596e+03
-5.20457057957596e+03
-5.20457057957596e+03
-5.20457057957596e+03
-5.20457057957596e+03
-5.20457057957596e+03
-5.20457057957596e+03
-5.20457057957596e+03
-5.20457057957596e+03
-5.20457057957596e+03
-5.20457057957596e+03
-5.20457057957596e+03
-5.20457057957596e+03
-5.20457057957596e+03
-5.20457057957596e+03
-5.20457057957596e+03
-5.20457057957596e+03
-5.20457057957596e+03
-5.20457057957596e+03
-5.20457057957596e+03
-5.20457057957596e+03
-5.20457057957596e+03
-5.20457057957596e+03
-5.20457057957596e+03
-5.20457057957596e+03
-5.20457057957596e+03
-5.20457057957596e+03
-5.20457057957596e+03
-5.20457057957596e+03
-5.20457057957596e+03
-5.20457057957596e+03
-5.20457057957596e+03
-5.20457057957596e+03
-5.20457057957596e+03
-5.20457057957596e+03
-5.20457057957596e+03
-5.20457057957596e+03
-5.20457057957596e+03
-5.20457057957596e+03
-5.20457057957596e+03
-5.20457057957596e+03
-5.20457057957596e+03
-5.20457057957596e+03
-5.20457057957596e+03
-5.20457057957596e+03
-5.20457057957596e+03
-5.20457057957596e+03
-5.20457057957596e+03
-5.20457057957596e+03
-5.20457057957596e+03
-5.20457057957596e+03
-5.20457057957596e+03
-5.20457057957596e+03
-5.20457057957596e+03
-5.20457057957596e+03
-5.20457057957596e+03
-5.20457057957596e+03
-5.20457057957596e+03
-5.20457057957596e+03
-5.20457057957596e+03
-5.20457057957596e+03
-5.20457057957596e+03
-5.20457057957596e+03
-5.20457057957596e+03
-5.20457057957596e+03
-5.20457057957596e+03
-5.20457057957596e+03
-5.20457057957596e+03
-5.20457057957596e+03
-5.20457057957596e+03
-5.20457057957596e+03
-5.20457057957596e+03
-5.20457057957596e+03
-5.20457057957596e+03
-5.20457057957596e+03
-5.20457057957596e+03
-5.20457057957596e+03
-5.20457057957596e+03
-5.20457057957596e+03
-5.20457057957596e+03
-5.20457057957596e+03
-5.20457057957596e+03
-5.20457057957596e+03
-5.20457057957596e+03
-5.20457057957596e+03
-5.20457057957596e+03
-5.20457057957596e+03
-5.20457057957596e+03
-5.20457057957596e+03
-5.20457057957596e+03
-5.20457057957596e+03
-5.20457057957596e+03
-5.20457057957596e+03
-5.20457057957596e+03
-5.20457057957596e+03
-5.20457057957596e+03
-5.20457057957596e+03
-5.20457057957596e+03
-5.20457057957596e+03
-5.20457057957596e+03
-5.20457057957596e+03
-5.20457057957596e+03
-5.20457057957596e+03
-5.20457057957596e+03
-5.20457057957596e+03
-5.20457057957596e+03
-5.20457057957596e+03
-5.20457057957596e+03
-5.20457057957596e+03
-5.20457057957596e+03
-5.20457057957596e+03
-5.20457057957596e+03
-5.20457057957596e+03
-5.20457057957596e+03
-5.20457057957596e+03
-5.20457057957596e+03
-5.20457057957596e+03
-5.20457057957596e+03
-5.20457057957596e+03
-5.20457057957596e+03
-5.20457057957596e+03
-5.20457057957596e+03
-5.20457057957596e+03
-5.20457057957596e+03
-5.20457057957596e+03
+0.00000000000000e+00
+0.00000000000000e+00
+0.00000000000000e+00
+0.00000000000000e+00
+0.00000000000000e+00
+0.00000000000000e+00
+0.00000000000000e+00
+0.00000000000000e+00
+0.00000000000000e+00
+0.00000000000000e+00
+0.00000000000000e+00
+0.00000000000000e+00
+0.00000000000000e+00
+0.00000000000000e+00
+0.00000000000000e+00
+0.00000000000000e+00
+0.00000000000000e+00
+0.00000000000000e+00
+0.00000000000000e+00
+0.00000000000000e+00
+0.00000000000000e+00
+0.00000000000000e+00
+0.00000000000000e+00
+0.00000000000000e+00
+0.00000000000000e+00
+0.00000000000000e+00
+0.00000000000000e+00
+0.00000000000000e+00
+0.00000000000000e+00
+0.00000000000000e+00
+0.00000000000000e+00
+0.00000000000000e+00
+0.00000000000000e+00
+0.00000000000000e+00
+0.00000000000000e+00
+0.00000000000000e+00
+0.00000000000000e+00
+0.00000000000000e+00
+0.00000000000000e+00
+0.00000000000000e+00
+0.00000000000000e+00
+0.00000000000000e+00
+0.00000000000000e+00
+0.00000000000000e+00
+0.00000000000000e+00
+0.00000000000000e+00
+0.00000000000000e+00
+0.00000000000000e+00
+0.00000000000000e+00
+0.00000000000000e+00
+0.00000000000000e+00
+0.00000000000000e+00
+0.00000000000000e+00
+0.00000000000000e+00
+0.00000000000000e+00
+0.00000000000000e+00
+0.00000000000000e+00
+0.00000000000000e+00
+0.00000000000000e+00
+0.00000000000000e+00
+0.00000000000000e+00
+0.00000000000000e+00
+0.00000000000000e+00
+0.00000000000000e+00
+0.00000000000000e+00
+0.00000000000000e+00
+0.00000000000000e+00
+0.00000000000000e+00
+0.00000000000000e+00
+0.00000000000000e+00
+0.00000000000000e+00
+0.00000000000000e+00
+0.00000000000000e+00
+0.00000000000000e+00
+0.00000000000000e+00
+0.00000000000000e+00
+0.00000000000000e+00
+0.00000000000000e+00
+0.00000000000000e+00
+0.00000000000000e+00
+0.00000000000000e+00
+0.00000000000000e+00
+0.00000000000000e+00
+0.00000000000000e+00
+0.00000000000000e+00
+0.00000000000000e+00
+0.00000000000000e+00
+0.00000000000000e+00
+0.00000000000000e+00
+0.00000000000000e+00
+0.00000000000000e+00
+0.00000000000000e+00
+0.00000000000000e+00
+0.00000000000000e+00
+0.00000000000000e+00
+0.00000000000000e+00
+0.00000000000000e+00
+0.00000000000000e+00
+0.00000000000000e+00
+0.00000000000000e+00
+0.00000000000000e+00
+0.00000000000000e+00
+0.00000000000000e+00
+0.00000000000000e+00
+0.00000000000000e+00
+0.00000000000000e+00
+0.00000000000000e+00
+0.00000000000000e+00
+0.00000000000000e+00
+0.00000000000000e+00
+0.00000000000000e+00
+0.00000000000000e+00
+0.00000000000000e+00
+0.00000000000000e+00
+0.00000000000000e+00
+0.00000000000000e+00
+0.00000000000000e+00
+0.00000000000000e+00
+0.00000000000000e+00
+0.00000000000000e+00
+0.00000000000000e+00
+0.00000000000000e+00
+0.00000000000000e+00
+0.00000000000000e+00
+0.00000000000000e+00
+0.00000000000000e+00
+0.00000000000000e+00
+0.00000000000000e+00
+0.00000000000000e+00
+0.00000000000000e+00
+0.00000000000000e+00
+0.00000000000000e+00
+0.00000000000000e+00
+0.00000000000000e+00
+0.00000000000000e+00
+0.00000000000000e+00
+0.00000000000000e+00
+0.00000000000000e+00
+0.00000000000000e+00
+0.00000000000000e+00
+0.00000000000000e+00
+0.00000000000000e+00
+0.00000000000000e+00
+0.00000000000000e+00
+0.00000000000000e+00
+0.00000000000000e+00
+0.00000000000000e+00
+0.00000000000000e+00
+0.00000000000000e+00
+0.00000000000000e+00
+0.00000000000000e+00
+0.00000000000000e+00
+0.00000000000000e+00
+0.00000000000000e+00
+0.00000000000000e+00
+0.00000000000000e+00
+0.00000000000000e+00
+0.00000000000000e+00
+0.00000000000000e+00
+0.00000000000000e+00
+0.00000000000000e+00
+0.00000000000000e+00
+0.00000000000000e+00
+0.00000000000000e+00
+0.00000000000000e+00
+0.00000000000000e+00
+0.00000000000000e+00
+0.00000000000000e+00
+0.00000000000000e+00
+0.00000000000000e+00
+0.00000000000000e+00
+0.00000000000000e+00
+0.00000000000000e+00
+0.00000000000000e+00
+0.00000000000000e+00
+0.00000000000000e+00
+0.00000000000000e+00
+0.00000000000000e+00
+0.00000000000000e+00
+0.00000000000000e+00
+0.00000000000000e+00
+0.00000000000000e+00
+0.00000000000000e+00
+0.00000000000000e+00
+0.00000000000000e+00
+0.00000000000000e+00
+0.00000000000000e+00
+0.00000000000000e+00
+0.00000000000000e+00
+0.00000000000000e+00
+0.00000000000000e+00
+0.00000000000000e+00
+0.00000000000000e+00
+0.00000000000000e+00
+0.00000000000000e+00
+0.00000000000000e+00
+0.00000000000000e+00
+0.00000000000000e+00
+0.00000000000000e+00
+0.00000000000000e+00
+0.00000000000000e+00
+0.00000000000000e+00
+0.00000000000000e+00
+0.00000000000000e+00
+0.00000000000000e+00
+0.00000000000000e+00
+0.00000000000000e+00
+0.00000000000000e+00
+0.00000000000000e+00
+0.00000000000000e+00
+0.00000000000000e+00
+0.00000000000000e+00
+0.00000000000000e+00
+0.00000000000000e+00
+0.00000000000000e+00
+0.00000000000000e+00
+0.00000000000000e+00
+0.00000000000000e+00
+0.00000000000000e+00
+0.00000000000000e+00
+0.00000000000000e+00
+0.00000000000000e+00
+0.00000000000000e+00
+0.00000000000000e+00
+0.00000000000000e+00
+0.00000000000000e+00
+0.00000000000000e+00
+0.00000000000000e+00
+0.00000000000000e+00
+0.00000000000000e+00
+0.00000000000000e+00
+0.00000000000000e+00
+0.00000000000000e+00
+0.00000000000000e+00
+0.00000000000000e+00
+0.00000000000000e+00
+0.00000000000000e+00
+0.00000000000000e+00