TITLE = Boundary data
VARIABLES =  "x0" "x1" "p" "u" "v" "T" "rho" "H" "M" "xc0" "xc1" "xc2" "xc3" "xc4"
ZONE   T= "ZONE0 Wall", N=139, E=138, ZONETYPE=FELINESEG, DATAPACKING=BLOCK, STRANDID=1, SOLUTIONTIME=1.61980000000000e+04, VARLOCATION=( [1-2]=NODAL,[3-6]=NODAL,[7-14]=NODAL)
+1.10000000000000e+00
+1.80137700000000e-02
+1.07163162050000e+00
+1.04521824960000e+00
+1.02062515790000e+00
+9.97726900530000e-01
+9.76406678040000e-01
+9.56555740000000e-01
+9.36704819320000e-01
+9.16323082120000e-01
+8.95396334290000e-01
+8.73910002150000e-01
+8.51849122350000e-01
+8.31320160150000e-01
+8.12216738500000e-01
+7.94439867200000e-01
+7.77897430000000e-01
+7.61354995270000e-01
+7.45234795260000e-01
+7.29526052700000e-01
+7.14218265420000e-01
+6.99301199290000e-01
+6.84823989550000e-01
+6.70773666230000e-01
+6.57137641830000e-01
+6.43903700000000e-01
+6.30669783380000e-01
+6.17647687050000e-01
+6.04834020630000e-01
+5.92225448030000e-01
+5.79818686550000e-01
+5.67610506010000e-01
+5.55597727970000e-01
+5.43777224830000e-01
+5.32145919060000e-01
+5.20700782410000e-01
+5.09438835080000e-01
+4.98357144950000e-01
+4.87452826860000e-01
+4.76723041810000e-01
+4.66164996260000e-01
+4.55775941360000e-01
+4.45553172270000e-01
+4.35494027450000e-01
+4.25595887940000e-01
+4.15856176710000e-01
+4.06272357990000e-01
+3.96841936580000e-01
+3.87562457220000e-01
+3.78431503960000e-01
+3.69446699500000e-01
+3.60605704610000e-01
+3.51906217500000e-01
+3.43345973200000e-01
+3.34922743020000e-01
+3.26634333920000e-01
+3.18478587980000e-01
+3.10453381810000e-01
+3.02556626000000e-01
+2.94786264610000e-01
+2.87140274570000e-01
+2.79616665220000e-01
+2.72213477740000e-01
+2.64928784690000e-01
+2.57797843450000e-01
+2.50817408920000e-01
+2.43984304490000e-01
+2.37295420580000e-01
+2.30747713260000e-01
+2.24338202820000e-01
+2.18063972470000e-01
+2.11922166960000e-01
+2.05909991320000e-01
+2.00024709550000e-01
+1.94263643420000e-01
+1.88624171220000e-01
+1.83103726550000e-01
+1.77699797220000e-01
+1.72409924020000e-01
+1.67231699680000e-01
+1.62162767720000e-01
+1.57200821390000e-01
+1.52343602640000e-01
+1.47588901070000e-01
+1.42934552950000e-01
+1.38378440200000e-01
+1.33918489440000e-01
+1.29552671070000e-01
+1.25278998310000e-01
+1.21095526330000e-01
+1.17000351330000e-01
+1.12991609710000e-01
+1.09067477190000e-01
+1.05226167990000e-01
+1.01465934040000e-01
+9.77850641540000e-02
+9.41818832550000e-02
+9.06547516300000e-02
+8.72020641710000e-02
+8.38222496510000e-02
+8.05137700000000e-02
+7.72052851670000e-02
+7.39068100290000e-02
+7.06183143040000e-02
+6.73397677990000e-02
+6.40711404120000e-02
+6.08124021340000e-02
+5.75635230450000e-02
+5.43244733180000e-02
+5.10952232130000e-02
+4.78757430830000e-02
+4.46660033680000e-02
+4.14659746000000e-02
+3.82756273980000e-02
+3.50949324710000e-02
+3.24262341680000e-02
+3.01871163650000e-02
+2.83084294680000e-02
+2.67321548970000e-02
+2.54096133230000e-02
+2.42999613330000e-02
+2.33689300800000e-02
+2.25877669750000e-02
+2.19323477340000e-02
+2.13824313620000e-02
+2.09210350560000e-02
+2.05339097370000e-02
+2.02091000000000e-02
+1.98878224150000e-02
+1.95871238660000e-02
+1.93102464880000e-02
+1.90595167480000e-02
+1.88363491970000e-02
+1.86413709150000e-02
+1.84694302330000e-02
+1.83181816420000e-02
+1.81921852220000e-02
+1.80962223910000e-02
+1.80351572710000e-02
+1.35063020000000e-01
+0.00000000000000e+00
+1.31579821070000e-01
+1.28336667020000e-01
+1.25317015130000e-01
+1.22505462730000e-01
+1.19887668640000e-01
+1.17450280000000e-01
+1.15012892550000e-01
+1.12510329000000e-01
+1.09940846540000e-01
+1.07302655730000e-01
+1.04593919320000e-01
+1.02073278810000e-01
+9.97276727340000e-02
+9.75449466160000e-02
+9.55137900000000e-02
+9.34826345760000e-02
+9.15033230530000e-02
+8.95745321480000e-02
+8.76949723570000e-02
+8.58633870880000e-02
+8.40858093860000e-02
+8.23606467440000e-02
+8.06863536080000e-02
+7.90614300000000e-02
+7.74365094810000e-02
+7.58375972200000e-02
+7.42642769330000e-02
+7.27161389990000e-02
+7.11927803510000e-02
+6.96938043770000e-02
+6.82188208090000e-02
+6.67674456300000e-02
+6.53393009660000e-02
+6.39340149930000e-02
+6.25512218380000e-02
+6.11905614830000e-02
+5.98516796750000e-02
+5.85342278280000e-02
+5.72378629380000e-02
+5.59622474890000e-02
+5.47070493690000e-02
+5.34719417810000e-02
+5.22566031580000e-02
+5.10607170820000e-02
+4.98839721960000e-02
+4.87260621310000e-02
+4.75866854180000e-02
+4.64655454140000e-02
+4.53623502270000e-02
+4.42768126330000e-02
+4.32086500070000e-02
+4.21575842480000e-02
+4.11233417060000e-02
+4.01056531100000e-02
+3.91042535010000e-02
+3.81188821590000e-02
+3.71492825380000e-02
+3.61952021970000e-02
+3.52563927380000e-02
+3.43326097360000e-02
+3.34236126800000e-02
+3.25291649090000e-02
+3.16535954860000e-02
+3.07965059620000e-02
+2.99575062980000e-02
+2.91362146850000e-02
+2.83322573770000e-02
+2.75452685110000e-02
+2.67748899500000e-02
+2.60207711140000e-02
+2.52825688220000e-02
+2.45599471390000e-02
+2.38525772170000e-02
+2.31601371500000e-02
+2.24823118260000e-02
+2.18187927850000e-02
+2.11692780770000e-02
+2.05334721220000e-02
+1.99110855830000e-02
+1.93018352270000e-02
+1.87054438010000e-02
+1.81216399010000e-02
+1.75501578530000e-02
+1.69907375910000e-02
+1.64431245360000e-02
+1.59070694840000e-02
+1.53823284910000e-02
+1.48686627590000e-02
+1.43658385330000e-02
+1.38736269900000e-02
+1.33918041370000e-02
+1.29201507100000e-02
+1.24584520700000e-02
+1.20064981100000e-02
+1.15640831590000e-02
+1.11310058830000e-02
+1.07070692020000e-02
+1.02920801910000e-02
+9.88585000000000e-03
+9.47961927560000e-03
+9.07461758690000e-03
+8.67084121560000e-03
+8.26828645440000e-03
+7.86694960750000e-03
+7.46682699000000e-03
+7.06791492850000e-03
+6.67020976030000e-03
+6.27370783410000e-03
+5.87840550950000e-03
+5.48429915710000e-03
+5.09138515870000e-03
+4.69965990670000e-03
+4.30911980470000e-03
+3.98144496270000e-03
+3.70651595660000e-03
+3.47584228650000e-03
+3.28230016880000e-03
+3.11991253550000e-03
+2.98366444790000e-03
+2.86934822170000e-03
+2.77343348430000e-03
+2.69295814700000e-03
+2.62543692890000e-03
+2.56878460460000e-03
+2.52125160790000e-03
+2.48137000000000e-03
+2.42037365300000e-03
+2.32192681100000e-03
+2.19124315440000e-03
+2.03350957080000e-03
+1.85371828800000e-03
+1.65654221500000e-03
+1.43898706010000e-03
+1.19557473600000e-03
+9.27496414520000e-04
+6.36763119340000e-04
+3.26314002040000e-04
+1.37471984415045e+04
+3.47805929421798e+05
+1.37399545430273e+04
+1.37339669547223e+04
+1.37354335272870e+04
+1.37367351701966e+04
+1.37378101551598e+04
+1.37387041848898e+04
+1.37394578995812e+04
+1.37400171698756e+04
+1.37402913268954e+04
+1.37403563266374e+04
+1.37402721197738e+04
+1.37401432646476e+04
+1.37400945376330e+04
+1.37403120619113e+04
+1.37408654051377e+04
+1.37416200291323e+04
+1.37425641415615e+04
+1.37436165817716e+04
+1.37445956136697e+04
+1.37454561513563e+04
+1.37460744699116e+04
+1.37463906692309e+04
+1.37465374215767e+04
+1.37464934034598e+04
+1.37463581611163e+04
+1.37462206285739e+04
+1.37460251650751e+04
+1.37459721779650e+04
+1.37459605929840e+04
+1.37460030420213e+04
+1.37461801825068e+04
+1.37474683540000e+04
+1.37487689735036e+04
+1.37489880870455e+04
+1.37491417654647e+04
+1.37490720173051e+04
+1.37486552130910e+04
+1.37482300512895e+04
+1.37477677395454e+04
+1.37472990477898e+04
+1.37471113028678e+04
+1.37470506470025e+04
+1.37470078326200e+04
+1.37468532358705e+04
+1.37464777577229e+04
+1.37458749517008e+04
+1.37450849447774e+04
+1.37440859784051e+04
+1.37428704917047e+04
+1.37413708563870e+04
+1.37397451068734e+04
+1.37381816023325e+04
+1.37365165111291e+04
+1.37348137133754e+04
+1.37329659594448e+04
+1.37307760017479e+04
+1.37281210555615e+04
+1.37250222411823e+04
+1.37215541546720e+04
+1.37175701939253e+04
+1.37131749608516e+04
+1.37085081209546e+04
+1.37034260818036e+04
+1.36978600565636e+04
+1.36918911360394e+04
+1.36854319422818e+04
+1.36785250459586e+04
+1.36708667475649e+04
+1.36623543194619e+04
+1.36533119933744e+04
+1.36433005630124e+04
+1.36320937140973e+04
+1.36201323973738e+04
+1.36071505904983e+04
+1.35930746146804e+04
+1.35777646117694e+04
+1.35608502436235e+04
+1.35424207970172e+04
+1.35222978328763e+04
+1.35001187803566e+04
+1.34756451798316e+04
+1.34490081923616e+04
+1.34201403421816e+04
+1.33889478702035e+04
+1.33558580404517e+04
+1.33209047148729e+04
+1.32843074149386e+04
+1.32461358142944e+04
+1.32064721192752e+04
+1.31650508155171e+04
+1.31211551721545e+04
+1.30740451487980e+04
+1.30230460232550e+04
+1.29678232579075e+04
+1.29083336683498e+04
+1.28448381823781e+04
+1.27778247437165e+04
+1.27087467462333e+04
+1.26372816447705e+04
+1.25624155936534e+04
+1.24856114823726e+04
+1.24082014252416e+04
+1.23329649500872e+04
+1.22625689712361e+04
+1.22008108628599e+04
+1.21518894728664e+04
+1.21211351078800e+04
+1.21162524969681e+04
+1.21477980022285e+04
+1.22293326224412e+04
+1.23798230229772e+04
+1.26264687251710e+04
+1.30335951638529e+04
+1.35777688701869e+04
+1.42518080725797e+04
+1.50439488463495e+04
+1.59411125498418e+04
+1.69277774853382e+04
+1.79845828560092e+04
+1.90992588398641e+04
+2.02933736848515e+04
+2.21013851685311e+04
+2.39395701554931e+04
+2.54943438976163e+04
+2.73805467961355e+04
+3.21233594544762e+04
+4.43540810703469e+04
+6.35795911207199e+04
+8.78336172744572e+04
+1.16642374115785e+05
+1.48996843210741e+05
+1.83744021546062e+05
+2.21695407527205e+05
+2.67503485986158e+05
+3.07838408132746e+05
+3.35264325416702e+05
+3.48138536352403e+05
+0.00000000000000e+00
+0.00000000000000e+00
+0.00000000000000e+00
+0.00000000000000e+00
+0.00000000000000e+00
+0.00000000000000e+00
+0.00000000000000e+00
+0.00000000000000e+00
+0.00000000000000e+00
+0.00000000000000e+00
+0.00000000000000e+00
+0.00000000000000e+00
+0.00000000000000e+00
+0.00000000000000e+00
+0.00000000000000e+00
+0.00000000000000e+00
+0.00000000000000e+00
+0.00000000000000e+00
+0.00000000000000e+00
+0.00000000000000e+00
+0.00000000000000e+00
+0.00000000000000e+00
+0.00000000000000e+00
+0.00000000000000e+00
+0.00000000000000e+00
+0.00000000000000e+00
+0.00000000000000e+00
+0.00000000000000e+00
+0.00000000000000e+00
+0.00000000000000e+00
+0.00000000000000e+00
+0.00000000000000e+00
+0.00000000000000e+00
+0.00000000000000e+00
+0.00000000000000e+00
+0.00000000000000e+00
+0.00000000000000e+00
+0.00000000000000e+00
+0.00000000000000e+00
+0.00000000000000e+00
+0.00000000000000e+00
+0.00000000000000e+00
+0.00000000000000e+00
+0.00000000000000e+00
+0.00000000000000e+00
+0.00000000000000e+00
+0.00000000000000e+00
+0.00000000000000e+00
+0.00000000000000e+00
+0.00000000000000e+00
+0.00000000000000e+00
+0.00000000000000e+00
+0.00000000000000e+00
+0.00000000000000e+00
+0.00000000000000e+00
+0.00000000000000e+00
+0.00000000000000e+00
+0.00000000000000e+00
+0.00000000000000e+00
+0.00000000000000e+00
+0.00000000000000e+00
+0.00000000000000e+00
+0.00000000000000e+00
+0.00000000000000e+00
+0.00000000000000e+00
+0.00000000000000e+00
+0.00000000000000e+00
+0.00000000000000e+00
+0.00000000000000e+00
+0.00000000000000e+00
+0.00000000000000e+00
+0.00000000000000e+00
+0.00000000000000e+00
+0.00000000000000e+00
+0.00000000000000e+00
+0.00000000000000e+00
+0.00000000000000e+00
+0.00000000000000e+00
+0.00000000000000e+00
+0.00000000000000e+00
+0.00000000000000e+00
+0.00000000000000e+00
+0.00000000000000e+00
+0.00000000000000e+00
+0.00000000000000e+00
+0.00000000000000e+00
+0.00000000000000e+00
+0.00000000000000e+00
+0.00000000000000e+00
+0.00000000000000e+00
+0.00000000000000e+00
+0.00000000000000e+00
+0.00000000000000e+00
+0.00000000000000e+00
+0.00000000000000e+00
+0.00000000000000e+00
+0.00000000000000e+00
+0.00000000000000e+00
+0.00000000000000e+00
+0.00000000000000e+00
+0.00000000000000e+00
+0.00000000000000e+00
+0.00000000000000e+00
+0.00000000000000e+00
+0.00000000000000e+00
+0.00000000000000e+00
+0.00000000000000e+00
+0.00000000000000e+00
+0.00000000000000e+00
+0.00000000000000e+00
+0.00000000000000e+00
+0.00000000000000e+00
+0.00000000000000e+00
+0.00000000000000e+00
+0.00000000000000e+00
+0.00000000000000e+00
+0.00000000000000e+00
+0.00000000000000e+00
+0.00000000000000e+00
+0.00000000000000e+00
+0.00000000000000e+00
+0.00000000000000e+00
+0.00000000000000e+00
+0.00000000000000e+00
+0.00000000000000e+00
+0.00000000000000e+00
+0.00000000000000e+00
+0.00000000000000e+00
+0.00000000000000e+00
+0.00000000000000e+00
+0.00000000000000e+00
+0.00000000000000e+00
+0.00000000000000e+00
+0.00000000000000e+00
+0.00000000000000e+00
+0.00000000000000e+00
+0.00000000000000e+00
+0.00000000000000e+00
+0.00000000000000e+00
+0.00000000000000e+00
+0.00000000000000e+00
+0.00000000000000e+00
+0.00000000000000e+00
+0.00000000000000e+00
+0.00000000000000e+00
+0.00000000000000e+00
+0.00000000000000e+00
+0.00000000000000e+00
+0.00000000000000e+00
+0.00000000000000e+00
+0.00000000000000e+00
+0.00000000000000e+00
+0.00000000000000e+00
+0.00000000000000e+00
+0.00000000000000e+00
+0.00000000000000e+00
+0.00000000000000e+00
+0.00000000000000e+00
+0.00000000000000e+00
+0.00000000000000e+00
+0.00000000000000e+00
+0.00000000000000e+00
+0.00000000000000e+00
+0.00000000000000e+00
+0.00000000000000e+00
+0.00000000000000e+00
+0.00000000000000e+00
+0.00000000000000e+00
+0.00000000000000e+00
+0.00000000000000e+00
+0.00000000000000e+00
+0.00000000000000e+00
+0.00000000000000e+00
+0.00000000000000e+00
+0.00000000000000e+00
+0.00000000000000e+00
+0.00000000000000e+00
+0.00000000000000e+00
+0.00000000000000e+00
+0.00000000000000e+00
+0.00000000000000e+00
+0.00000000000000e+00
+0.00000000000000e+00
+0.00000000000000e+00
+0.00000000000000e+00
+0.00000000000000e+00
+0.00000000000000e+00
+0.00000000000000e+00
+0.00000000000000e+00
+0.00000000000000e+00
+0.00000000000000e+00
+0.00000000000000e+00
+0.00000000000000e+00
+0.00000000000000e+00
+0.00000000000000e+00
+0.00000000000000e+00
+0.00000000000000e+00
+0.00000000000000e+00
+0.00000000000000e+00
+0.00000000000000e+00
+0.00000000000000e+00
+0.00000000000000e+00
+0.00000000000000e+00
+0.00000000000000e+00
+0.00000000000000e+00
+0.00000000000000e+00
+0.00000000000000e+00
+0.00000000000000e+00
+0.00000000000000e+00
+0.00000000000000e+00
+0.00000000000000e+00
+0.00000000000000e+00
+0.00000000000000e+00
+0.00000000000000e+00
+0.00000000000000e+00
+0.00000000000000e+00
+0.00000000000000e+00
+0.00000000000000e+00
+0.00000000000000e+00
+0.00000000000000e+00
+0.00000000000000e+00
+0.00000000000000e+00
+0.00000000000000e+00
+0.00000000000000e+00
+0.00000000000000e+00
+0.00000000000000e+00
+0.00000000000000e+00
+0.00000000000000e+00
+0.00000000000000e+00
+0.00000000000000e+00
+0.00000000000000e+00
+0.00000000000000e+00
+0.00000000000000e+00
+0.00000000000000e+00
+0.00000000000000e+00
+0.00000000000000e+00
+0.00000000000000e+00
+0.00000000000000e+00
+0.00000000000000e+00
+0.00000000000000e+00
+0.00000000000000e+00
+0.00000000000000e+00
+0.00000000000000e+00
+0.00000000000000e+00
+0.00000000000000e+00
+0.00000000000000e+00
+0.00000000000000e+00
+0.00000000000000e+00
+0.00000000000000e+00
+0.00000000000000e+00
+0.00000000000000e+00
+0.00000000000000e+00
+0.00000000000000e+00
+0.00000000000000e+00
+0.00000000000000e+00
+0.00000000000000e+00
+0.00000000000000e+00
+0.00000000000000e+00
+0.00000000000000e+00
+0.00000000000000e+00
+0.00000000000000e+00
+0.00000000000000e+00
+0.00000000000000e+00
+0.00000000000000e+00
+0.00000000000000e+00
+0.00000000000000e+00
+0.00000000000000e+00
+0.00000000000000e+00
+0.00000000000000e+00
+0.00000000000000e+00
+0.00000000000000e+00
+0.00000000000000e+00
+0.00000000000000e+00
+0.00000000000000e+00
+0.00000000000000e+00
+0.00000000000000e+00
+0.00000000000000e+00
+0.00000000000000e+00
+2.93000000000000e+02
+2.93000000000000e+02
+2.93000000000000e+02
+2.93000000000000e+02
+2.93000000000000e+02
+2.93000000000000e+02
+2.93000000000000e+02
+2.93000000000000e+02
+2.93000000000000e+02
+2.93000000000000e+02
+2.93000000000000e+02
+2.93000000000000e+02
+2.93000000000000e+02
+2.93000000000000e+02
+2.93000000000000e+02
+2.93000000000000e+02
+2.93000000000000e+02
+2.93000000000000e+02
+2.93000000000000e+02
+2.93000000000000e+02
+2.93000000000000e+02
+2.93000000000000e+02
+2.93000000000000e+02
+2.93000000000000e+02
+2.93000000000000e+02
+2.93000000000000e+02
+2.93000000000000e+02
+2.93000000000000e+02
+2.93000000000000e+02
+2.93000000000000e+02
+2.93000000000000e+02
+2.93000000000000e+02
+2.93000000000000e+02
+2.93000000000000e+02
+2.93000000000000e+02
+2.93000000000000e+02
+2.93000000000000e+02
+2.93000000000000e+02
+2.93000000000000e+02
+2.93000000000000e+02
+2.93000000000000e+02
+2.93000000000000e+02
+2.93000000000000e+02
+2.93000000000000e+02
+2.93000000000000e+02
+2.93000000000000e+02
+2.93000000000000e+02
+2.93000000000000e+02
+2.93000000000000e+02
+2.93000000000000e+02
+2.93000000000000e+02
+2.93000000000000e+02
+2.93000000000000e+02
+2.93000000000000e+02
+2.93000000000000e+02
+2.93000000000000e+02
+2.93000000000000e+02
+2.93000000000000e+02
+2.93000000000000e+02
+2.93000000000000e+02
+2.93000000000000e+02
+2.93000000000000e+02
+2.93000000000000e+02
+2.93000000000000e+02
+2.93000000000000e+02
+2.93000000000000e+02
+2.93000000000000e+02
+2.93000000000000e+02
+2.93000000000000e+02
+2.93000000000000e+02
+2.93000000000000e+02
+2.93000000000000e+02
+2.93000000000000e+02
+2.93000000000000e+02
+2.93000000000000e+02
+2.93000000000000e+02
+2.93000000000000e+02
+2.93000000000000e+02
+2.93000000000000e+02
+2.93000000000000e+02
+2.93000000000000e+02
+2.93000000000000e+02
+2.93000000000000e+02
+2.93000000000000e+02
+2.93000000000000e+02
+2.93000000000000e+02
+2.93000000000000e+02
+2.93000000000000e+02
+2.93000000000000e+02
+2.93000000000000e+02
+2.93000000000000e+02
+2.93000000000000e+02
+2.93000000000000e+02
+2.93000000000000e+02
+2.93000000000000e+02
+2.93000000000000e+02
+2.93000000000000e+02
+2.93000000000000e+02
+2.93000000000000e+02
+2.93000000000000e+02
+2.93000000000000e+02
+2.93000000000000e+02
+2.93000000000000e+02
+2.93000000000000e+02
+2.93000000000000e+02
+2.93000000000000e+02
+2.93000000000000e+02
+2.93000000000000e+02
+2.93000000000000e+02
+2.93000000000000e+02
+2.93000000000000e+02
+2.93000000000000e+02
+2.93000000000000e+02
+2.93000000000000e+02
+2.93000000000000e+02
+2.93000000000000e+02
+2.93000000000000e+02
+2.93000000000000e+02
+2.93000000000000e+02
+2.93000000000000e+02
+2.93000000000000e+02
+2.93000000000000e+02
+2.93000000000000e+02
+2.93000000000000e+02
+2.93000000000000e+02
+2.93000000000000e+02
+2.93000000000000e+02
+2.93000000000000e+02
+2.93000000000000e+02
+2.93000000000000e+02
+2.93000000000000e+02
+2.93000000000000e+02
+2.93000000000000e+02
+2.93000000000000e+02
+2.93000000000000e+02
+2.93000000000000e+02
+2.93000000000000e+02
+2.93000000000000e+02
+2.93000000000000e+02
+1.62802362737530e-01
+4.11892119873948e+00
+1.62716576255830e-01
+1.62645667733829e-01
+1.62663035743731e-01
+1.62678450560214e-01
+1.62691181160755e-01
+1.62701768783609e-01
+1.62710694713725e-01
+1.62717317919590e-01
+1.62720564647334e-01
+1.62721334412288e-01
+1.62720337185369e-01
+1.62718811207614e-01
+1.62718234153815e-01
+1.62720810203518e-01
+1.62727363217577e-01
+1.62736299916193e-01
+1.62747480647658e-01
+1.62759944260049e-01
+1.62771538528284e-01
+1.62781729518776e-01
+1.62789052008674e-01
+1.62792796625914e-01
+1.62794534553008e-01
+1.62794013264728e-01
+1.62792411645811e-01
+1.62790782905021e-01
+1.62788468111969e-01
+1.62787840607627e-01
+1.62787703411508e-01
+1.62788206117830e-01
+1.62790303919043e-01
+1.62805559199135e-01
+1.62820961895845e-01
+1.62823556766537e-01
+1.62825376716242e-01
+1.62824550717751e-01
+1.62819614678517e-01
+1.62814579663846e-01
+1.62809104697832e-01
+1.62803554175991e-01
+1.62801330790839e-01
+1.62800612468613e-01
+1.62800105435660e-01
+1.62798274610550e-01
+1.62793827978762e-01
+1.62786689197352e-01
+1.62777333473402e-01
+1.62765503129467e-01
+1.62751108625195e-01
+1.62733349066838e-01
+1.62714095990427e-01
+1.62695580055381e-01
+1.62675861071674e-01
+1.62655695544948e-01
+1.62633813362412e-01
+1.62607878602769e-01
+1.62576437177526e-01
+1.62539739205590e-01
+1.62498668097141e-01
+1.62451487704322e-01
+1.62399436784114e-01
+1.62344169337078e-01
+1.62283984857685e-01
+1.62218068732012e-01
+1.62147381284786e-01
+1.62070887735240e-01
+1.61989092230113e-01
+1.61898398182278e-01
+1.61797589030967e-01
+1.61690504517860e-01
+1.61571943305244e-01
+1.61439225247089e-01
+1.61297572339966e-01
+1.61143834191721e-01
+1.60977138255037e-01
+1.60795828247909e-01
+1.60595518409502e-01
+1.60377266126012e-01
+1.60138958217578e-01
+1.59876300908246e-01
+1.59586470219680e-01
+1.59271019437851e-01
+1.58929149475295e-01
+1.58559749982062e-01
+1.58167880868577e-01
+1.57753943147813e-01
+1.57320536521404e-01
+1.56868486105402e-01
+1.56398765435295e-01
+1.55908230134726e-01
+1.55388392257669e-01
+1.54830487813088e-01
+1.54226526346228e-01
+1.53572546066992e-01
+1.52868035560398e-01
+1.52116084885986e-01
+1.51322472558667e-01
+1.50504410518515e-01
+1.49658078997156e-01
+1.48771471441256e-01
+1.47861912243600e-01
+1.46945177080854e-01
+1.46054182746896e-01
+1.45220512400683e-01
+1.44489136767704e-01
+1.43909781060195e-01
+1.43545569886145e-01
+1.43487747152577e-01
+1.43861327472378e-01
+1.44826908123012e-01
+1.46609103446722e-01
+1.49530026080311e-01
+1.54351455437889e-01
+1.60795878678579e-01
+1.68778245063570e-01
+1.78159239317723e-01
+1.88783976518718e-01
+2.00468639645724e-01
+2.12983946821294e-01
+2.26184591638529e-01
+2.40325997901858e-01
+2.61737527141950e-01
+2.83506388652131e-01
+3.01918928473751e-01
+3.24256446171480e-01
+3.80423607072289e-01
+5.25266964467719e-01
+7.52946696767583e-01
+1.04017705723179e+00
+1.38134720191662e+00
+1.76450774449483e+00
+2.17600414905487e+00
+2.62544665424489e+00
+3.16793270602603e+00
+3.64560244028065e+00
+3.97039619029968e+00
+4.12286012450649e+00
+2.95609539551299e+05
+2.95609539551299e+05
+2.95609539551299e+05
+2.95609539551299e+05
+2.95609539551299e+05
+2.95609539551299e+05
+2.95609539551299e+05
+2.95609539551299e+05
+2.95609539551299e+05
+2.95609539551299e+05
+2.95609539551299e+05
+2.95609539551299e+05
+2.95609539551299e+05
+2.95609539551299e+05
+2.95609539551299e+05
+2.95609539551299e+05
+2.95609539551299e+05
+2.95609539551299e+05
+2.95609539551299e+05
+2.95609539551299e+05
+2.95609539551299e+05
+2.95609539551299e+05
+2.95609539551299e+05
+2.95609539551299e+05
+2.95609539551299e+05
+2.95609539551299e+05
+2.95609539551299e+05
+2.95609539551299e+05
+2.95609539551299e+05
+2.95609539551299e+05
+2.95609539551299e+05
+2.95609539551299e+05
+2.95609539551299e+05
+2.95609539551299e+05
+2.95609539551299e+05
+2.95609539551299e+05
+2.95609539551299e+05
+2.95609539551299e+05
+2.95609539551299e+05
+2.95609539551299e+05
+2.95609539551299e+05
+2.95609539551299e+05
+2.95609539551299e+05
+2.95609539551299e+05
+2.95609539551299e+05
+2.95609539551299e+05
+2.95609539551299e+05
+2.95609539551299e+05
+2.95609539551299e+05
+2.95609539551299e+05
+2.95609539551299e+05
+2.95609539551299e+05
+2.95609539551299e+05
+2.95609539551299e+05
+2.95609539551299e+05
+2.95609539551299e+05
+2.95609539551299e+05
+2.95609539551299e+05
+2.95609539551299e+05
+2.95609539551299e+05
+2.95609539551299e+05
+2.95609539551299e+05
+2.95609539551299e+05
+2.95609539551299e+05
+2.95609539551299e+05
+2.95609539551299e+05
+2.95609539551299e+05
+2.95609539551299e+05
+2.95609539551299e+05
+2.95609539551299e+05
+2.95609539551299e+05
+2.95609539551299e+05
+2.95609539551299e+05
+2.95609539551299e+05
+2.95609539551299e+05
+2.95609539551299e+05
+2.95609539551299e+05
+2.95609539551299e+05
+2.95609539551299e+05
+2.95609539551299e+05
+2.95609539551299e+05
+2.95609539551299e+05
+2.95609539551299e+05
+2.95609539551299e+05
+2.95609539551299e+05
+2.95609539551299e+05
+2.95609539551299e+05
+2.95609539551299e+05
+2.95609539551299e+05
+2.95609539551299e+05
+2.95609539551299e+05
+2.95609539551299e+05
+2.95609539551299e+05
+2.95609539551299e+05
+2.95609539551299e+05
+2.95609539551299e+05
+2.95609539551299e+05
+2.95609539551299e+05
+2.95609539551299e+05
+2.95609539551299e+05
+2.95609539551299e+05
+2.95609539551299e+05
+2.95609539551299e+05
+2.95609539551299e+05
+2.95609539551299e+05
+2.95609539551299e+05
+2.95609539551299e+05
+2.95609539551299e+05
+2.95609539551299e+05
+2.95609539551299e+05
+2.95609539551299e+05
+2.95609539551299e+05
+2.95609539551299e+05
+2.95609539551299e+05
+2.95609539551299e+05
+2.95609539551299e+05
+2.95609539551299e+05
+2.95609539551299e+05
+2.95609539551299e+05
+2.95609539551299e+05
+2.95609539551299e+05
+2.95609539551299e+05
+2.95609539551299e+05
+2.95609539551299e+05
+2.95609539551299e+05
+2.95609539551299e+05
+2.95609539551299e+05
+2.95609539551299e+05
+2.95609539551299e+05
+2.95609539551299e+05
+2.95609539551299e+05
+2.95609539551299e+05
+2.95609539551299e+05
+2.95609539551299e+05
+2.95609539551299e+05
+2.95609539551299e+05
+2.95609539551299e+05
+2.95609539551299e+05
+2.95609539551299e+05
+0.00000000000000e+00
+0.00000000000000e+00
+0.00000000000000e+00
+0.00000000000000e+00
+0.00000000000000e+00
+0.00000000000000e+00
+0.00000000000000e+00
+0.00000000000000e+00
+0.00000000000000e+00
+0.00000000000000e+00
+0.00000000000000e+00
+0.00000000000000e+00
+0.00000000000000e+00
+0.00000000000000e+00
+0.00000000000000e+00
+0.00000000000000e+00
+0.00000000000000e+00
+0.00000000000000e+00
+0.00000000000000e+00
+0.00000000000000e+00
+0.00000000000000e+00
+0.00000000000000e+00
+0.00000000000000e+00
+0.00000000000000e+00
+0.00000000000000e+00
+0.00000000000000e+00
+0.00000000000000e+00
+0.00000000000000e+00
+0.00000000000000e+00
+0.00000000000000e+00
+0.00000000000000e+00
+0.00000000000000e+00
+0.00000000000000e+00
+0.00000000000000e+00
+0.00000000000000e+00
+0.00000000000000e+00
+0.00000000000000e+00
+0.00000000000000e+00
+0.00000000000000e+00
+0.00000000000000e+00
+0.00000000000000e+00
+0.00000000000000e+00
+0.00000000000000e+00
+0.00000000000000e+00
+0.00000000000000e+00
+0.00000000000000e+00
+0.00000000000000e+00
+0.00000000000000e+00
+0.00000000000000e+00
+0.00000000000000e+00
+0.00000000000000e+00
+0.00000000000000e+00
+0.00000000000000e+00
+0.00000000000000e+00
+0.00000000000000e+00
+0.00000000000000e+00
+0.00000000000000e+00
+0.00000000000000e+00
+0.00000000000000e+00
+0.00000000000000e+00
+0.00000000000000e+00
+0.00000000000000e+00
+0.00000000000000e+00
+0.00000000000000e+00
+0.00000000000000e+00
+0.00000000000000e+00
+0.00000000000000e+00
+0.00000000000000e+00
+0.00000000000000e+00
+0.00000000000000e+00
+0.00000000000000e+00
+0.00000000000000e+00
+0.00000000000000e+00
+0.00000000000000e+00
+0.00000000000000e+00
+0.00000000000000e+00
+0.00000000000000e+00
+0.00000000000000e+00
+0.00000000000000e+00
+0.00000000000000e+00
+0.00000000000000e+00
+0.00000000000000e+00
+0.00000000000000e+00
+0.00000000000000e+00
+0.00000000000000e+00
+0.00000000000000e+00
+0.00000000000000e+00
+0.00000000000000e+00
+0.00000000000000e+00
+0.00000000000000e+00
+0.00000000000000e+00
+0.00000000000000e+00
+0.00000000000000e+00
+0.00000000000000e+00
+0.00000000000000e+00
+0.00000000000000e+00
+0.00000000000000e+00
+0.00000000000000e+00
+0.00000000000000e+00
+0.00000000000000e+00
+0.00000000000000e+00
+0.00000000000000e+00
+0.00000000000000e+00
+0.00000000000000e+00
+0.00000000000000e+00
+0.00000000000000e+00
+0.00000000000000e+00
+0.00000000000000e+00
+0.00000000000000e+00
+0.00000000000000e+00
+0.00000000000000e+00
+0.00000000000000e+00
+0.00000000000000e+00
+0.00000000000000e+00
+0.00000000000000e+00
+0.00000000000000e+00
+0.00000000000000e+00
+0.00000000000000e+00
+0.00000000000000e+00
+0.00000000000000e+00
+0.00000000000000e+00
+0.00000000000000e+00
+0.00000000000000e+00
+0.00000000000000e+00
+0.00000000000000e+00
+0.00000000000000e+00
+0.00000000000000e+00
+0.00000000000000e+00
+0.00000000000000e+00
+0.00000000000000e+00
+0.00000000000000e+00
+0.00000000000000e+00
+0.00000000000000e+00
+0.00000000000000e+00
+0.00000000000000e+00
+0.00000000000000e+00
+0.00000000000000e+00
+0.00000000000000e+00
+0.00000000000000e+00
+0.00000000000000e+00
+0.00000000000000e+00
+0.00000000000000e+00
+0.00000000000000e+00
+0.00000000000000e+00
+0.00000000000000e+00
+0.00000000000000e+00
+0.00000000000000e+00
+0.00000000000000e+00
+0.00000000000000e+00
+0.00000000000000e+00
+0.00000000000000e+00
+0.00000000000000e+00
+0.00000000000000e+00
+0.00000000000000e+00
+0.00000000000000e+00
+0.00000000000000e+00
+0.00000000000000e+00
+0.00000000000000e+00
+0.00000000000000e+00
+0.00000000000000e+00
+0.00000000000000e+00
+0.00000000000000e+00
+0.00000000000000e+00
+0.00000000000000e+00
+0.00000000000000e+00
+0.00000000000000e+00
+0.00000000000000e+00
+0.00000000000000e+00
+0.00000000000000e+00
+0.00000000000000e+00
+0.00000000000000e+00
+0.00000000000000e+00
+0.00000000000000e+00
+0.00000000000000e+00
+0.00000000000000e+00
+0.00000000000000e+00
+0.00000000000000e+00
+0.00000000000000e+00
+0.00000000000000e+00
+0.00000000000000e+00
+0.00000000000000e+00
+0.00000000000000e+00
+0.00000000000000e+00
+0.00000000000000e+00
+0.00000000000000e+00
+0.00000000000000e+00
+0.00000000000000e+00
+0.00000000000000e+00
+0.00000000000000e+00
+0.00000000000000e+00
+0.00000000000000e+00
+0.00000000000000e+00
+0.00000000000000e+00
+0.00000000000000e+00
+0.00000000000000e+00
+0.00000000000000e+00
+0.00000000000000e+00
+0.00000000000000e+00
+0.00000000000000e+00
+0.00000000000000e+00
+0.00000000000000e+00
+0.00000000000000e+00
+0.00000000000000e+00
+0.00000000000000e+00
+0.00000000000000e+00
+0.00000000000000e+00
+0.00000000000000e+00
+0.00000000000000e+00
+0.00000000000000e+00
+0.00000000000000e+00
+0.00000000000000e+00
+0.00000000000000e+00
+0.00000000000000e+00
+0.00000000000000e+00
+0.00000000000000e+00
+0.00000000000000e+00
+0.00000000000000e+00
+0.00000000000000e+00
+0.00000000000000e+00
+0.00000000000000e+00
+0.00000000000000e+00
+0.00000000000000e+00
+0.00000000000000e+00
+0.00000000000000e+00
+0.00000000000000e+00
+0.00000000000000e+00
+0.00000000000000e+00
+0.00000000000000e+00
+0.00000000000000e+00
+0.00000000000000e+00
+0.00000000000000e+00
+0.00000000000000e+00
+0.00000000000000e+00
+0.00000000000000e+00
+0.00000000000000e+00
+0.00000000000000e+00
+0.00000000000000e+00
+0.00000000000000e+00