TITLE = Boundary data
VARIABLES =  "x0" "x1" "p" "u" "v" "T" "rho" "H" "M" "xc0" "xc1" "xc2" "xc3" "xc4"
ZONE   T= "ZONE0 Wall", N=139, E=138, ZONETYPE=FELINESEG, DATAPACKING=BLOCK, STRANDID=1, SOLUTIONTIME=7.41300000000000e+03, VARLOCATION=( [1-2]=NODAL,[3-6]=NODAL,[7-14]=NODAL)
+1.10000000000000e+00
+1.80137700000000e-02
+1.07163162050000e+00
+1.04521824960000e+00
+1.02062515790000e+00
+9.97726900530000e-01
+9.76406678040000e-01
+9.56555740000000e-01
+9.36704819320000e-01
+9.16323082120000e-01
+8.95396334290000e-01
+8.73910002150000e-01
+8.51849122350000e-01
+8.31320160150000e-01
+8.12216738500000e-01
+7.94439867200000e-01
+7.77897430000000e-01
+7.61354995270000e-01
+7.45234795260000e-01
+7.29526052700000e-01
+7.14218265420000e-01
+6.99301199290000e-01
+6.84823989550000e-01
+6.70773666230000e-01
+6.57137641830000e-01
+6.43903700000000e-01
+6.30669783380000e-01
+6.17647687050000e-01
+6.04834020630000e-01
+5.92225448030000e-01
+5.79818686550000e-01
+5.67610506010000e-01
+5.55597727970000e-01
+5.43777224830000e-01
+5.32145919060000e-01
+5.20700782410000e-01
+5.09438835080000e-01
+4.98357144950000e-01
+4.87452826860000e-01
+4.76723041810000e-01
+4.66164996260000e-01
+4.55775941360000e-01
+4.45553172270000e-01
+4.35494027450000e-01
+4.25595887940000e-01
+4.15856176710000e-01
+4.06272357990000e-01
+3.96841936580000e-01
+3.87562457220000e-01
+3.78431503960000e-01
+3.69446699500000e-01
+3.60605704610000e-01
+3.51906217500000e-01
+3.43345973200000e-01
+3.34922743020000e-01
+3.26634333920000e-01
+3.18478587980000e-01
+3.10453381810000e-01
+3.02556626000000e-01
+2.94786264610000e-01
+2.87140274570000e-01
+2.79616665220000e-01
+2.72213477740000e-01
+2.64928784690000e-01
+2.57797843450000e-01
+2.50817408920000e-01
+2.43984304490000e-01
+2.37295420580000e-01
+2.30747713260000e-01
+2.24338202820000e-01
+2.18063972470000e-01
+2.11922166960000e-01
+2.05909991320000e-01
+2.00024709550000e-01
+1.94263643420000e-01
+1.88624171220000e-01
+1.83103726550000e-01
+1.77699797220000e-01
+1.72409924020000e-01
+1.67231699680000e-01
+1.62162767720000e-01
+1.57200821390000e-01
+1.52343602640000e-01
+1.47588901070000e-01
+1.42934552950000e-01
+1.38378440200000e-01
+1.33918489440000e-01
+1.29552671070000e-01
+1.25278998310000e-01
+1.21095526330000e-01
+1.17000351330000e-01
+1.12991609710000e-01
+1.09067477190000e-01
+1.05226167990000e-01
+1.01465934040000e-01
+9.77850641540000e-02
+9.41818832550000e-02
+9.06547516300000e-02
+8.72020641710000e-02
+8.38222496510000e-02
+8.05137700000000e-02
+7.72052851670000e-02
+7.39068100290000e-02
+7.06183143040000e-02
+6.73397677990000e-02
+6.40711404120000e-02
+6.08124021340000e-02
+5.75635230450000e-02
+5.43244733180000e-02
+5.10952232130000e-02
+4.78757430830000e-02
+4.46660033680000e-02
+4.14659746000000e-02
+3.82756273980000e-02
+3.50949324710000e-02
+3.24262341680000e-02
+3.01871163650000e-02
+2.83084294680000e-02
+2.67321548970000e-02
+2.54096133230000e-02
+2.42999613330000e-02
+2.33689300800000e-02
+2.25877669750000e-02
+2.19323477340000e-02
+2.13824313620000e-02
+2.09210350560000e-02
+2.05339097370000e-02
+2.02091000000000e-02
+1.98878224150000e-02
+1.95871238660000e-02
+1.93102464880000e-02
+1.90595167480000e-02
+1.88363491970000e-02
+1.86413709150000e-02
+1.84694302330000e-02
+1.83181816420000e-02
+1.81921852220000e-02
+1.80962223910000e-02
+1.80351572710000e-02
+1.35063020000000e-01
+0.00000000000000e+00
+1.31579821070000e-01
+1.28336667020000e-01
+1.25317015130000e-01
+1.22505462730000e-01
+1.19887668640000e-01
+1.17450280000000e-01
+1.15012892550000e-01
+1.12510329000000e-01
+1.09940846540000e-01
+1.07302655730000e-01
+1.04593919320000e-01
+1.02073278810000e-01
+9.97276727340000e-02
+9.75449466160000e-02
+9.55137900000000e-02
+9.34826345760000e-02
+9.15033230530000e-02
+8.95745321480000e-02
+8.76949723570000e-02
+8.58633870880000e-02
+8.40858093860000e-02
+8.23606467440000e-02
+8.06863536080000e-02
+7.90614300000000e-02
+7.74365094810000e-02
+7.58375972200000e-02
+7.42642769330000e-02
+7.27161389990000e-02
+7.11927803510000e-02
+6.96938043770000e-02
+6.82188208090000e-02
+6.67674456300000e-02
+6.53393009660000e-02
+6.39340149930000e-02
+6.25512218380000e-02
+6.11905614830000e-02
+5.98516796750000e-02
+5.85342278280000e-02
+5.72378629380000e-02
+5.59622474890000e-02
+5.47070493690000e-02
+5.34719417810000e-02
+5.22566031580000e-02
+5.10607170820000e-02
+4.98839721960000e-02
+4.87260621310000e-02
+4.75866854180000e-02
+4.64655454140000e-02
+4.53623502270000e-02
+4.42768126330000e-02
+4.32086500070000e-02
+4.21575842480000e-02
+4.11233417060000e-02
+4.01056531100000e-02
+3.91042535010000e-02
+3.81188821590000e-02
+3.71492825380000e-02
+3.61952021970000e-02
+3.52563927380000e-02
+3.43326097360000e-02
+3.34236126800000e-02
+3.25291649090000e-02
+3.16535954860000e-02
+3.07965059620000e-02
+2.99575062980000e-02
+2.91362146850000e-02
+2.83322573770000e-02
+2.75452685110000e-02
+2.67748899500000e-02
+2.60207711140000e-02
+2.52825688220000e-02
+2.45599471390000e-02
+2.38525772170000e-02
+2.31601371500000e-02
+2.24823118260000e-02
+2.18187927850000e-02
+2.11692780770000e-02
+2.05334721220000e-02
+1.99110855830000e-02
+1.93018352270000e-02
+1.87054438010000e-02
+1.81216399010000e-02
+1.75501578530000e-02
+1.69907375910000e-02
+1.64431245360000e-02
+1.59070694840000e-02
+1.53823284910000e-02
+1.48686627590000e-02
+1.43658385330000e-02
+1.38736269900000e-02
+1.33918041370000e-02
+1.29201507100000e-02
+1.24584520700000e-02
+1.20064981100000e-02
+1.15640831590000e-02
+1.11310058830000e-02
+1.07070692020000e-02
+1.02920801910000e-02
+9.88585000000000e-03
+9.47961927560000e-03
+9.07461758690000e-03
+8.67084121560000e-03
+8.26828645440000e-03
+7.86694960750000e-03
+7.46682699000000e-03
+7.06791492850000e-03
+6.67020976030000e-03
+6.27370783410000e-03
+5.87840550950000e-03
+5.48429915710000e-03
+5.09138515870000e-03
+4.69965990670000e-03
+4.30911980470000e-03
+3.98144496270000e-03
+3.70651595660000e-03
+3.47584228650000e-03
+3.28230016880000e-03
+3.11991253550000e-03
+2.98366444790000e-03
+2.86934822170000e-03
+2.77343348430000e-03
+2.69295814700000e-03
+2.62543692890000e-03
+2.56878460460000e-03
+2.52125160790000e-03
+2.48137000000000e-03
+2.42037365300000e-03
+2.32192681100000e-03
+2.19124315440000e-03
+2.03350957080000e-03
+1.85371828800000e-03
+1.65654221500000e-03
+1.43898706010000e-03
+1.19557473600000e-03
+9.27496414520000e-04
+6.36763119340000e-04
+3.26314002040000e-04
+1.36584485469778e+04
+3.48562634463014e+05
+1.36417044309554e+04
+1.36317756995423e+04
+1.36354707708027e+04
+1.36343722548400e+04
+1.36356966059675e+04
+1.36357789454875e+04
+1.36347376092001e+04
+1.36342849389913e+04
+1.36341695956859e+04
+1.36336018014395e+04
+1.36326134508914e+04
+1.36312761549454e+04
+1.36290383050005e+04
+1.36273217707497e+04
+1.36268223657108e+04
+1.36257397280068e+04
+1.36261152713777e+04
+1.36274135972937e+04
+1.36274412603592e+04
+1.36287951013841e+04
+1.36292223303849e+04
+1.36282168780178e+04
+1.36274475212317e+04
+1.36261707038941e+04
+1.36265136882889e+04
+1.36270255128743e+04
+1.36266916347395e+04
+1.36281794747822e+04
+1.36292883881266e+04
+1.36287411184754e+04
+1.36279851440593e+04
+1.36275853916001e+04
+1.36270348880991e+04
+1.36261308491635e+04
+1.36252832464550e+04
+1.36259025891303e+04
+1.36275217018765e+04
+1.36276268691389e+04
+1.36258064350647e+04
+1.36239550504620e+04
+1.36241295229128e+04
+1.36237184499156e+04
+1.36227060601134e+04
+1.36213298887888e+04
+1.36211050003667e+04
+1.36207246727722e+04
+1.36196575910277e+04
+1.36190887015895e+04
+1.36173992577409e+04
+1.36167646750865e+04
+1.36177519505654e+04
+1.36188714791294e+04
+1.36190517143889e+04
+1.36193632914419e+04
+1.36193791048672e+04
+1.36180812138819e+04
+1.36167648316864e+04
+1.36174388891389e+04
+1.36189354610518e+04
+1.36189638064727e+04
+1.36165577764182e+04
+1.36149782472128e+04
+1.36139749224506e+04
+1.36106727261182e+04
+1.36065503000182e+04
+1.36028205341625e+04
+1.36004762422046e+04
+1.35968749913194e+04
+1.35920741731722e+04
+1.35862632619939e+04
+1.35787413528790e+04
+1.35701980333365e+04
+1.35627935310460e+04
+1.35542503308710e+04
+1.35419072424442e+04
+1.35325844774248e+04
+1.35224108342626e+04
+1.35119524183736e+04
+1.35032559274154e+04
+1.34916270801840e+04
+1.34775554071534e+04
+1.34591723146682e+04
+1.34393944705164e+04
+1.34225650865259e+04
+1.34054644833503e+04
+1.33848772550684e+04
+1.33615978301095e+04
+1.33341853024053e+04
+1.33051887610742e+04
+1.32711629818810e+04
+1.32323648336413e+04
+1.31920081381506e+04
+1.31461748815030e+04
+1.30957665460022e+04
+1.30369341802439e+04
+1.29700932430617e+04
+1.29019884715540e+04
+1.28263114075905e+04
+1.27346245660807e+04
+1.26308782292338e+04
+1.25174602489353e+04
+1.23935359325719e+04
+1.22569797306988e+04
+1.21050980753987e+04
+1.19407083754570e+04
+1.17649575476188e+04
+1.15763810877075e+04
+1.13800540925780e+04
+1.11868466168315e+04
+1.10135085990340e+04
+1.08835299421015e+04
+1.08158280840251e+04
+1.09134909451945e+04
+1.12047734824315e+04
+1.16726801667276e+04
+1.23261639475511e+04
+1.31267061068148e+04
+1.40254980403323e+04
+1.49649665666123e+04
+1.58976079477032e+04
+1.68061994816365e+04
+1.77114401989186e+04
+1.87110625973191e+04
+1.99659231671229e+04
+2.19054573017806e+04
+2.60254977732601e+04
+3.64243183512468e+04
+5.44549559772924e+04
+7.87782568927628e+04
+1.08146171840515e+05
+1.41853825246555e+05
+1.79100490088861e+05
+2.18578838436701e+05
+2.57676259204085e+05
+2.91875094508825e+05
+3.19196864411387e+05
+3.39859689497289e+05
+0.00000000000000e+00
+0.00000000000000e+00
+0.00000000000000e+00
+0.00000000000000e+00
+0.00000000000000e+00
+0.00000000000000e+00
+0.00000000000000e+00
+0.00000000000000e+00
+0.00000000000000e+00
+0.00000000000000e+00
+0.00000000000000e+00
+0.00000000000000e+00
+0.00000000000000e+00
+0.00000000000000e+00
+0.00000000000000e+00
+0.00000000000000e+00
+0.00000000000000e+00
+0.00000000000000e+00
+0.00000000000000e+00
+0.00000000000000e+00
+0.00000000000000e+00
+0.00000000000000e+00
+0.00000000000000e+00
+0.00000000000000e+00
+0.00000000000000e+00
+0.00000000000000e+00
+0.00000000000000e+00
+0.00000000000000e+00
+0.00000000000000e+00
+0.00000000000000e+00
+0.00000000000000e+00
+0.00000000000000e+00
+0.00000000000000e+00
+0.00000000000000e+00
+0.00000000000000e+00
+0.00000000000000e+00
+0.00000000000000e+00
+0.00000000000000e+00
+0.00000000000000e+00
+0.00000000000000e+00
+0.00000000000000e+00
+0.00000000000000e+00
+0.00000000000000e+00
+0.00000000000000e+00
+0.00000000000000e+00
+0.00000000000000e+00
+0.00000000000000e+00
+0.00000000000000e+00
+0.00000000000000e+00
+0.00000000000000e+00
+0.00000000000000e+00
+0.00000000000000e+00
+0.00000000000000e+00
+0.00000000000000e+00
+0.00000000000000e+00
+0.00000000000000e+00
+0.00000000000000e+00
+0.00000000000000e+00
+0.00000000000000e+00
+0.00000000000000e+00
+0.00000000000000e+00
+0.00000000000000e+00
+0.00000000000000e+00
+0.00000000000000e+00
+0.00000000000000e+00
+0.00000000000000e+00
+0.00000000000000e+00
+0.00000000000000e+00
+0.00000000000000e+00
+0.00000000000000e+00
+0.00000000000000e+00
+0.00000000000000e+00
+0.00000000000000e+00
+0.00000000000000e+00
+0.00000000000000e+00
+0.00000000000000e+00
+0.00000000000000e+00
+0.00000000000000e+00
+0.00000000000000e+00
+0.00000000000000e+00
+0.00000000000000e+00
+0.00000000000000e+00
+0.00000000000000e+00
+0.00000000000000e+00
+0.00000000000000e+00
+0.00000000000000e+00
+0.00000000000000e+00
+0.00000000000000e+00
+0.00000000000000e+00
+0.00000000000000e+00
+0.00000000000000e+00
+0.00000000000000e+00
+0.00000000000000e+00
+0.00000000000000e+00
+0.00000000000000e+00
+0.00000000000000e+00
+0.00000000000000e+00
+0.00000000000000e+00
+0.00000000000000e+00
+0.00000000000000e+00
+0.00000000000000e+00
+0.00000000000000e+00
+0.00000000000000e+00
+0.00000000000000e+00
+0.00000000000000e+00
+0.00000000000000e+00
+0.00000000000000e+00
+0.00000000000000e+00
+0.00000000000000e+00
+0.00000000000000e+00
+0.00000000000000e+00
+0.00000000000000e+00
+0.00000000000000e+00
+0.00000000000000e+00
+0.00000000000000e+00
+0.00000000000000e+00
+0.00000000000000e+00
+0.00000000000000e+00
+0.00000000000000e+00
+0.00000000000000e+00
+0.00000000000000e+00
+0.00000000000000e+00
+0.00000000000000e+00
+0.00000000000000e+00
+0.00000000000000e+00
+0.00000000000000e+00
+0.00000000000000e+00
+0.00000000000000e+00
+0.00000000000000e+00
+0.00000000000000e+00
+0.00000000000000e+00
+0.00000000000000e+00
+0.00000000000000e+00
+0.00000000000000e+00
+0.00000000000000e+00
+0.00000000000000e+00
+0.00000000000000e+00
+0.00000000000000e+00
+0.00000000000000e+00
+0.00000000000000e+00
+0.00000000000000e+00
+0.00000000000000e+00
+0.00000000000000e+00
+0.00000000000000e+00
+0.00000000000000e+00
+0.00000000000000e+00
+0.00000000000000e+00
+0.00000000000000e+00
+0.00000000000000e+00
+0.00000000000000e+00
+0.00000000000000e+00
+0.00000000000000e+00
+0.00000000000000e+00
+0.00000000000000e+00
+0.00000000000000e+00
+0.00000000000000e+00
+0.00000000000000e+00
+0.00000000000000e+00
+0.00000000000000e+00
+0.00000000000000e+00
+0.00000000000000e+00
+0.00000000000000e+00
+0.00000000000000e+00
+0.00000000000000e+00
+0.00000000000000e+00
+0.00000000000000e+00
+0.00000000000000e+00
+0.00000000000000e+00
+0.00000000000000e+00
+0.00000000000000e+00
+0.00000000000000e+00
+0.00000000000000e+00
+0.00000000000000e+00
+0.00000000000000e+00
+0.00000000000000e+00
+0.00000000000000e+00
+0.00000000000000e+00
+0.00000000000000e+00
+0.00000000000000e+00
+0.00000000000000e+00
+0.00000000000000e+00
+0.00000000000000e+00
+0.00000000000000e+00
+0.00000000000000e+00
+0.00000000000000e+00
+0.00000000000000e+00
+0.00000000000000e+00
+0.00000000000000e+00
+0.00000000000000e+00
+0.00000000000000e+00
+0.00000000000000e+00
+0.00000000000000e+00
+0.00000000000000e+00
+0.00000000000000e+00
+0.00000000000000e+00
+0.00000000000000e+00
+0.00000000000000e+00
+0.00000000000000e+00
+0.00000000000000e+00
+0.00000000000000e+00
+0.00000000000000e+00
+0.00000000000000e+00
+0.00000000000000e+00
+0.00000000000000e+00
+0.00000000000000e+00
+0.00000000000000e+00
+0.00000000000000e+00
+0.00000000000000e+00
+0.00000000000000e+00
+0.00000000000000e+00
+0.00000000000000e+00
+0.00000000000000e+00
+0.00000000000000e+00
+0.00000000000000e+00
+0.00000000000000e+00
+0.00000000000000e+00
+0.00000000000000e+00
+0.00000000000000e+00
+0.00000000000000e+00
+0.00000000000000e+00
+0.00000000000000e+00
+0.00000000000000e+00
+0.00000000000000e+00
+0.00000000000000e+00
+0.00000000000000e+00
+0.00000000000000e+00
+0.00000000000000e+00
+0.00000000000000e+00
+0.00000000000000e+00
+0.00000000000000e+00
+0.00000000000000e+00
+0.00000000000000e+00
+0.00000000000000e+00
+0.00000000000000e+00
+0.00000000000000e+00
+0.00000000000000e+00
+0.00000000000000e+00
+0.00000000000000e+00
+0.00000000000000e+00
+0.00000000000000e+00
+0.00000000000000e+00
+0.00000000000000e+00
+0.00000000000000e+00
+0.00000000000000e+00
+0.00000000000000e+00
+0.00000000000000e+00
+0.00000000000000e+00
+0.00000000000000e+00
+0.00000000000000e+00
+0.00000000000000e+00
+0.00000000000000e+00
+0.00000000000000e+00
+0.00000000000000e+00
+0.00000000000000e+00
+0.00000000000000e+00
+0.00000000000000e+00
+0.00000000000000e+00
+0.00000000000000e+00
+0.00000000000000e+00
+0.00000000000000e+00
+0.00000000000000e+00
+0.00000000000000e+00
+0.00000000000000e+00
+0.00000000000000e+00
+0.00000000000000e+00
+0.00000000000000e+00
+0.00000000000000e+00
+0.00000000000000e+00
+0.00000000000000e+00
+0.00000000000000e+00
+0.00000000000000e+00
+0.00000000000000e+00
+0.00000000000000e+00
+0.00000000000000e+00
+0.00000000000000e+00
+0.00000000000000e+00
+0.00000000000000e+00
+0.00000000000000e+00
+2.93000000000000e+02
+2.93000000000000e+02
+2.93000000000000e+02
+2.93000000000000e+02
+2.93000000000000e+02
+2.93000000000000e+02
+2.93000000000000e+02
+2.93000000000000e+02
+2.93000000000000e+02
+2.93000000000000e+02
+2.93000000000000e+02
+2.93000000000000e+02
+2.93000000000000e+02
+2.93000000000000e+02
+2.93000000000000e+02
+2.93000000000000e+02
+2.93000000000000e+02
+2.93000000000000e+02
+2.93000000000000e+02
+2.93000000000000e+02
+2.93000000000000e+02
+2.93000000000000e+02
+2.93000000000000e+02
+2.93000000000000e+02
+2.93000000000000e+02
+2.93000000000000e+02
+2.93000000000000e+02
+2.93000000000000e+02
+2.93000000000000e+02
+2.93000000000000e+02
+2.93000000000000e+02
+2.93000000000000e+02
+2.93000000000000e+02
+2.93000000000000e+02
+2.93000000000000e+02
+2.93000000000000e+02
+2.93000000000000e+02
+2.93000000000000e+02
+2.93000000000000e+02
+2.93000000000000e+02
+2.93000000000000e+02
+2.93000000000000e+02
+2.93000000000000e+02
+2.93000000000000e+02
+2.93000000000000e+02
+2.93000000000000e+02
+2.93000000000000e+02
+2.93000000000000e+02
+2.93000000000000e+02
+2.93000000000000e+02
+2.93000000000000e+02
+2.93000000000000e+02
+2.93000000000000e+02
+2.93000000000000e+02
+2.93000000000000e+02
+2.93000000000000e+02
+2.93000000000000e+02
+2.93000000000000e+02
+2.93000000000000e+02
+2.93000000000000e+02
+2.93000000000000e+02
+2.93000000000000e+02
+2.93000000000000e+02
+2.93000000000000e+02
+2.93000000000000e+02
+2.93000000000000e+02
+2.93000000000000e+02
+2.93000000000000e+02
+2.93000000000000e+02
+2.93000000000000e+02
+2.93000000000000e+02
+2.93000000000000e+02
+2.93000000000000e+02
+2.93000000000000e+02
+2.93000000000000e+02
+2.93000000000000e+02
+2.93000000000000e+02
+2.93000000000000e+02
+2.93000000000000e+02
+2.93000000000000e+02
+2.93000000000000e+02
+2.93000000000000e+02
+2.93000000000000e+02
+2.93000000000000e+02
+2.93000000000000e+02
+2.93000000000000e+02
+2.93000000000000e+02
+2.93000000000000e+02
+2.93000000000000e+02
+2.93000000000000e+02
+2.93000000000000e+02
+2.93000000000000e+02
+2.93000000000000e+02
+2.93000000000000e+02
+2.93000000000000e+02
+2.93000000000000e+02
+2.93000000000000e+02
+2.93000000000000e+02
+2.93000000000000e+02
+2.93000000000000e+02
+2.93000000000000e+02
+2.93000000000000e+02
+2.93000000000000e+02
+2.93000000000000e+02
+2.93000000000000e+02
+2.93000000000000e+02
+2.93000000000000e+02
+2.93000000000000e+02
+2.93000000000000e+02
+2.93000000000000e+02
+2.93000000000000e+02
+2.93000000000000e+02
+2.93000000000000e+02
+2.93000000000000e+02
+2.93000000000000e+02
+2.93000000000000e+02
+2.93000000000000e+02
+2.93000000000000e+02
+2.93000000000000e+02
+2.93000000000000e+02
+2.93000000000000e+02
+2.93000000000000e+02
+2.93000000000000e+02
+2.93000000000000e+02
+2.93000000000000e+02
+2.93000000000000e+02
+2.93000000000000e+02
+2.93000000000000e+02
+2.93000000000000e+02
+2.93000000000000e+02
+2.93000000000000e+02
+2.93000000000000e+02
+2.93000000000000e+02
+2.93000000000000e+02
+2.93000000000000e+02
+2.93000000000000e+02
+2.93000000000000e+02
+2.93000000000000e+02
+2.93000000000000e+02
+1.61791151375939e-01
+4.12889866388814e+00
+1.61592808950683e-01
+1.61475198163374e-01
+1.61518968129749e-01
+1.61505955658985e-01
+1.61521643260179e-01
+1.61522618612958e-01
+1.61510283464034e-01
+1.61504921359104e-01
+1.61503555059988e-01
+1.61496829253279e-01
+1.61485121746926e-01
+1.61469280807884e-01
+1.61442772356507e-01
+1.61422439150151e-01
+1.61416523447795e-01
+1.61403699062943e-01
+1.61408147561918e-01
+1.61423526881472e-01
+1.61423854564312e-01
+1.61439891488085e-01
+1.61444952229187e-01
+1.61433042143237e-01
+1.61423928727477e-01
+1.61408804187788e-01
+1.61412867009414e-01
+1.61418929827507e-01
+1.61414974874083e-01
+1.61432599083212e-01
+1.61445734716161e-01
+1.61439252033544e-01
+1.61430297138646e-01
+1.61425561870917e-01
+1.61419040881732e-01
+1.61408332088579e-01
+1.61398291810751e-01
+1.61405628234370e-01
+1.61424807434300e-01
+1.61426053193100e-01
+1.61404489241393e-01
+1.61382558665202e-01
+1.61384625378606e-01
+1.61379756013445e-01
+1.61367763750108e-01
+1.61351462312772e-01
+1.61348798396983e-01
+1.61344293226487e-01
+1.61331653109752e-01
+1.61324914329949e-01
+1.61304902022950e-01
+1.61297385074159e-01
+1.61309079845780e-01
+1.61322341221311e-01
+1.61324476198066e-01
+1.61328166984027e-01
+1.61328354301955e-01
+1.61312980134374e-01
+1.61297386929162e-01
+1.61305371476672e-01
+1.61323099119169e-01
+1.61323434884850e-01
+1.61294934255997e-01
+1.61276223942896e-01
+1.61264339059491e-01
+1.61225222893049e-01
+1.61176390694950e-01
+1.61132209753749e-01
+1.61104440443514e-01
+1.61061781826388e-01
+1.61004913735336e-01
+1.60936080587352e-01
+1.60846979813419e-01
+1.60745779922334e-01
+1.60658069890933e-01
+1.60556871413814e-01
+1.60410661360656e-01
+1.60300228548225e-01
+1.60179716658808e-01
+1.60055831494075e-01
+1.59952817210994e-01
+1.59815067701870e-01
+1.59648381699900e-01
+1.59430624779061e-01
+1.59196346327445e-01
+1.58996993860479e-01
+1.58794428666673e-01
+1.58550562655397e-01
+1.58274806228560e-01
+1.57950091133420e-01
+1.57606612604966e-01
+1.57203560239744e-01
+1.56743976777290e-01
+1.56265931543477e-01
+1.55723013704836e-01
+1.55125901769935e-01
+1.54429002985167e-01
+1.53637238668118e-01
+1.52830503601648e-01
+1.51934070945384e-01
+1.50847994470236e-01
+1.49619067243855e-01
+1.48275574565598e-01
+1.46807629084165e-01
+1.45190052603749e-01
+1.43390938465758e-01
+1.41443660285778e-01
+1.39361803866037e-01
+1.37128021422409e-01
+1.34802430014357e-01
+1.32513790872952e-01
+1.30460515394393e-01
+1.28920853222142e-01
+1.28118890866697e-01
+1.29275756282334e-01
+1.32726143558253e-01
+1.38268732156686e-01
+1.46009574239979e-01
+1.55492396335531e-01
+1.66139036125625e-01
+1.77267510492645e-01
+1.88315113911771e-01
+1.99077834867953e-01
+2.09800863725711e-01
+2.21641890781026e-01
+2.36506341579118e-01
+2.59481093045209e-01
+3.08285032182471e-01
+4.31464260663480e-01
+6.45046177491488e-01
+9.33167836905590e-01
+1.28104547151138e+00
+1.68032947774289e+00
+2.12153484371279e+00
+2.58917561650252e+00
+3.05230411166270e+00
+3.45740641304336e+00
+3.78104643664926e+00
+4.02580792986201e+00
-5.20414854685057e+03
-5.20414854685057e+03
-5.20414854685057e+03
-5.20414854685057e+03
-5.20414854685057e+03
-5.20414854685057e+03
-5.20414854685057e+03
-5.20414854685057e+03
-5.20414854685057e+03
-5.20414854685057e+03
-5.20414854685057e+03
-5.20414854685057e+03
-5.20414854685057e+03
-5.20414854685057e+03
-5.20414854685057e+03
-5.20414854685057e+03
-5.20414854685057e+03
-5.20414854685057e+03
-5.20414854685057e+03
-5.20414854685057e+03
-5.20414854685057e+03
-5.20414854685057e+03
-5.20414854685057e+03
-5.20414854685057e+03
-5.20414854685057e+03
-5.20414854685057e+03
-5.20414854685057e+03
-5.20414854685057e+03
-5.20414854685057e+03
-5.20414854685057e+03
-5.20414854685057e+03
-5.20414854685057e+03
-5.20414854685057e+03
-5.20414854685057e+03
-5.20414854685057e+03
-5.20414854685057e+03
-5.20414854685057e+03
-5.20414854685057e+03
-5.20414854685057e+03
-5.20414854685057e+03
-5.20414854685057e+03
-5.20414854685057e+03
-5.20414854685057e+03
-5.20414854685057e+03
-5.20414854685057e+03
-5.20414854685057e+03
-5.20414854685057e+03
-5.20414854685057e+03
-5.20414854685057e+03
-5.20414854685057e+03
-5.20414854685057e+03
-5.20414854685057e+03
-5.20414854685057e+03
-5.20414854685057e+03
-5.20414854685057e+03
-5.20414854685057e+03
-5.20414854685057e+03
-5.20414854685057e+03
-5.20414854685057e+03
-5.20414854685057e+03
-5.20414854685057e+03
-5.20414854685057e+03
-5.20414854685057e+03
-5.20414854685057e+03
-5.20414854685057e+03
-5.20414854685057e+03
-5.20414854685057e+03
-5.20414854685057e+03
-5.20414854685057e+03
-5.20414854685057e+03
-5.20414854685057e+03
-5.20414854685057e+03
-5.20414854685057e+03
-5.20414854685057e+03
-5.20414854685057e+03
-5.20414854685057e+03
-5.20414854685057e+03
-5.20414854685057e+03
-5.20414854685057e+03
-5.20414854685057e+03
-5.20414854685057e+03
-5.20414854685057e+03
-5.20414854685057e+03
-5.20414854685057e+03
-5.20414854685057e+03
-5.20414854685057e+03
-5.20414854685057e+03
-5.20414854685057e+03
-5.20414854685057e+03
-5.20414854685057e+03
-5.20414854685057e+03
-5.20414854685057e+03
-5.20414854685057e+03
-5.20414854685057e+03
-5.20414854685057e+03
-5.20414854685057e+03
-5.20414854685057e+03
-5.20414854685057e+03
-5.20414854685057e+03
-5.20414854685057e+03
-5.20414854685057e+03
-5.20414854685057e+03
-5.20414854685057e+03
-5.20414854685057e+03
-5.20414854685057e+03
-5.20414854685057e+03
-5.20414854685057e+03
-5.20414854685057e+03
-5.20414854685057e+03
-5.20414854685057e+03
-5.20414854685057e+03
-5.20414854685057e+03
-5.20414854685057e+03
-5.20414854685057e+03
-5.20414854685057e+03
-5.20414854685057e+03
-5.20414854685057e+03
-5.20414854685057e+03
-5.20414854685057e+03
-5.20414854685057e+03
-5.20414854685057e+03
-5.20414854685057e+03
-5.20414854685057e+03
-5.20414854685057e+03
-5.20414854685057e+03
-5.20414854685057e+03
-5.20414854685057e+03
-5.20414854685057e+03
-5.20414854685057e+03
-5.20414854685057e+03
-5.20414854685057e+03
-5.20414854685057e+03
-5.20414854685057e+03
-5.20414854685057e+03
-5.20414854685057e+03
-5.20414854685057e+03
-5.20414854685057e+03
-5.20414854685057e+03
-5.20414854685057e+03
+0.00000000000000e+00
+0.00000000000000e+00
+0.00000000000000e+00
+0.00000000000000e+00
+0.00000000000000e+00
+0.00000000000000e+00
+0.00000000000000e+00
+0.00000000000000e+00
+0.00000000000000e+00
+0.00000000000000e+00
+0.00000000000000e+00
+0.00000000000000e+00
+0.00000000000000e+00
+0.00000000000000e+00
+0.00000000000000e+00
+0.00000000000000e+00
+0.00000000000000e+00
+0.00000000000000e+00
+0.00000000000000e+00
+0.00000000000000e+00
+0.00000000000000e+00
+0.00000000000000e+00
+0.00000000000000e+00
+0.00000000000000e+00
+0.00000000000000e+00
+0.00000000000000e+00
+0.00000000000000e+00
+0.00000000000000e+00
+0.00000000000000e+00
+0.00000000000000e+00
+0.00000000000000e+00
+0.00000000000000e+00
+0.00000000000000e+00
+0.00000000000000e+00
+0.00000000000000e+00
+0.00000000000000e+00
+0.00000000000000e+00
+0.00000000000000e+00
+0.00000000000000e+00
+0.00000000000000e+00
+0.00000000000000e+00
+0.00000000000000e+00
+0.00000000000000e+00
+0.00000000000000e+00
+0.00000000000000e+00
+0.00000000000000e+00
+0.00000000000000e+00
+0.00000000000000e+00
+0.00000000000000e+00
+0.00000000000000e+00
+0.00000000000000e+00
+0.00000000000000e+00
+0.00000000000000e+00
+0.00000000000000e+00
+0.00000000000000e+00
+0.00000000000000e+00
+0.00000000000000e+00
+0.00000000000000e+00
+0.00000000000000e+00
+0.00000000000000e+00
+0.00000000000000e+00
+0.00000000000000e+00
+0.00000000000000e+00
+0.00000000000000e+00
+0.00000000000000e+00
+0.00000000000000e+00
+0.00000000000000e+00
+0.00000000000000e+00
+0.00000000000000e+00
+0.00000000000000e+00
+0.00000000000000e+00
+0.00000000000000e+00
+0.00000000000000e+00
+0.00000000000000e+00
+0.00000000000000e+00
+0.00000000000000e+00
+0.00000000000000e+00
+0.00000000000000e+00
+0.00000000000000e+00
+0.00000000000000e+00
+0.00000000000000e+00
+0.00000000000000e+00
+0.00000000000000e+00
+0.00000000000000e+00
+0.00000000000000e+00
+0.00000000000000e+00
+0.00000000000000e+00
+0.00000000000000e+00
+0.00000000000000e+00
+0.00000000000000e+00
+0.00000000000000e+00
+0.00000000000000e+00
+0.00000000000000e+00
+0.00000000000000e+00
+0.00000000000000e+00
+0.00000000000000e+00
+0.00000000000000e+00
+0.00000000000000e+00
+0.00000000000000e+00
+0.00000000000000e+00
+0.00000000000000e+00
+0.00000000000000e+00
+0.00000000000000e+00
+0.00000000000000e+00
+0.00000000000000e+00
+0.00000000000000e+00
+0.00000000000000e+00
+0.00000000000000e+00
+0.00000000000000e+00
+0.00000000000000e+00
+0.00000000000000e+00
+0.00000000000000e+00
+0.00000000000000e+00
+0.00000000000000e+00
+0.00000000000000e+00
+0.00000000000000e+00
+0.00000000000000e+00
+0.00000000000000e+00
+0.00000000000000e+00
+0.00000000000000e+00
+0.00000000000000e+00
+0.00000000000000e+00
+0.00000000000000e+00
+0.00000000000000e+00
+0.00000000000000e+00
+0.00000000000000e+00
+0.00000000000000e+00
+0.00000000000000e+00
+0.00000000000000e+00
+0.00000000000000e+00
+0.00000000000000e+00
+0.00000000000000e+00
+0.00000000000000e+00
+0.00000000000000e+00
+0.00000000000000e+00
+0.00000000000000e+00
+0.00000000000000e+00
+0.00000000000000e+00
+0.00000000000000e+00
+0.00000000000000e+00
+0.00000000000000e+00
+0.00000000000000e+00
+0.00000000000000e+00
+0.00000000000000e+00
+0.00000000000000e+00
+0.00000000000000e+00
+0.00000000000000e+00
+0.00000000000000e+00
+0.00000000000000e+00
+0.00000000000000e+00
+0.00000000000000e+00
+0.00000000000000e+00
+0.00000000000000e+00
+0.00000000000000e+00
+0.00000000000000e+00
+0.00000000000000e+00
+0.00000000000000e+00
+0.00000000000000e+00
+0.00000000000000e+00
+0.00000000000000e+00
+0.00000000000000e+00
+0.00000000000000e+00
+0.00000000000000e+00
+0.00000000000000e+00
+0.00000000000000e+00
+0.00000000000000e+00
+0.00000000000000e+00
+0.00000000000000e+00
+0.00000000000000e+00
+0.00000000000000e+00
+0.00000000000000e+00
+0.00000000000000e+00
+0.00000000000000e+00
+0.00000000000000e+00
+0.00000000000000e+00
+0.00000000000000e+00
+0.00000000000000e+00
+0.00000000000000e+00
+0.00000000000000e+00
+0.00000000000000e+00
+0.00000000000000e+00
+0.00000000000000e+00
+0.00000000000000e+00
+0.00000000000000e+00
+0.00000000000000e+00
+0.00000000000000e+00
+0.00000000000000e+00
+0.00000000000000e+00
+0.00000000000000e+00
+0.00000000000000e+00
+0.00000000000000e+00
+0.00000000000000e+00
+0.00000000000000e+00
+0.00000000000000e+00
+0.00000000000000e+00
+0.00000000000000e+00
+0.00000000000000e+00
+0.00000000000000e+00
+0.00000000000000e+00
+0.00000000000000e+00
+0.00000000000000e+00
+0.00000000000000e+00
+0.00000000000000e+00
+0.00000000000000e+00
+0.00000000000000e+00
+0.00000000000000e+00
+0.00000000000000e+00
+0.00000000000000e+00
+0.00000000000000e+00
+0.00000000000000e+00
+0.00000000000000e+00
+0.00000000000000e+00
+0.00000000000000e+00
+0.00000000000000e+00
+0.00000000000000e+00
+0.00000000000000e+00
+0.00000000000000e+00
+0.00000000000000e+00
+0.00000000000000e+00
+0.00000000000000e+00
+0.00000000000000e+00
+0.00000000000000e+00
+0.00000000000000e+00
+0.00000000000000e+00
+0.00000000000000e+00
+0.00000000000000e+00
+0.00000000000000e+00
+0.00000000000000e+00
+0.00000000000000e+00
+0.00000000000000e+00
+0.00000000000000e+00
+0.00000000000000e+00
+0.00000000000000e+00
+0.00000000000000e+00
+0.00000000000000e+00
+0.00000000000000e+00
+0.00000000000000e+00
+0.00000000000000e+00